/*--------------------------------*- C++ -*----------------------------------*\
| =========                 |                                                 |
| \\      /  F ield         | OpenFOAM: The Open Source CFD Toolbox           |
|  \\    /   O peration     | Version:  2112                                  |
|   \\  /    A nd           | Website:  www.openfoam.com                      |
|    \\/     M anipulation  |                                                 |
\*---------------------------------------------------------------------------*/
FoamFile
{
    version     2.0;
    format      ascii;
    arch        "LSB;label=32;scalar=64";
    class       volVectorField;
    location    "680";
    object      U;
}
// * * * * * * * * * * * * * * * * * * * * * * * * * * * * * * * * * * * * * //

dimensions      [0 1 -1 0 0 0 0];

internalField   nonuniform List<vector> 
32768
(
(-6.11162e-07 7.57582e-07 -2.82823e-07)
(-6.11195e-07 4.25521e-07 -2.22662e-07)
(-6.11186e-07 4.29237e-07 -2.57784e-07)
(-6.11171e-07 3.77653e-07 -2.90188e-07)
(-6.11195e-07 3.29515e-07 -3.30699e-07)
(-6.11205e-07 3.59672e-07 -3.22403e-07)
(-6.1126e-07 4.37752e-07 -2.28047e-07)
(-6.10913e-07 5.26786e-07 -9.20753e-08)
(-6.10586e-07 5.6855e-07 3.03866e-08)
(-6.10607e-07 6.33364e-07 1.42627e-07)
(-6.10562e-07 6.26257e-07 1.66176e-07)
(-6.10565e-07 5.05967e-07 8.22186e-08)
(-6.10545e-07 3.49336e-07 2.76006e-09)
(-6.10508e-07 1.88611e-07 -7.77902e-08)
(-6.1049e-07 1.13296e-08 -1.34241e-07)
(-6.10479e-07 -1.66835e-07 -1.67776e-07)
(-6.10505e-07 -3.2578e-07 -1.80275e-07)
(-6.10531e-07 -4.89783e-07 -1.92719e-07)
(-6.1056e-07 -6.36807e-07 -2.04131e-07)
(-6.10536e-07 -7.66067e-07 -2.22691e-07)
(-6.10522e-07 -8.73989e-07 -2.67266e-07)
(-6.10524e-07 -8.82644e-07 -2.76991e-07)
(-6.10477e-07 -7.90052e-07 -2.04631e-07)
(-6.1047e-07 -6.69864e-07 -6.33592e-08)
(-6.10475e-07 -5.10378e-07 5.8904e-08)
(-6.10472e-07 -3.27913e-07 2.04311e-07)
(-6.10591e-07 -1.25171e-07 2.72508e-07)
(-6.10672e-07 -3.10184e-08 2.2746e-07)
(-6.10762e-07 -2.53446e-08 1.10037e-07)
(-6.10882e-07 -1.57919e-07 -1.15106e-07)
(-6.11033e-07 -3.21936e-07 -2.6574e-07)
(-6.11147e-07 -8.15857e-08 -3.49927e-07)
(-2.04304e-07 7.57646e-07 -2.95192e-07)
(-2.03638e-07 4.24899e-07 -1.31366e-07)
(-2.02855e-07 4.2934e-07 -1.64105e-07)
(-2.02135e-07 3.77441e-07 -1.99722e-07)
(-2.01668e-07 3.29505e-07 -2.55354e-07)
(-2.01326e-07 3.60725e-07 -2.87694e-07)
(-2.01012e-07 4.32829e-07 -2.0915e-07)
(-2.00056e-07 5.28997e-07 -9.20905e-08)
(-1.99359e-07 5.64125e-07 3.00201e-08)
(-1.99538e-07 6.33574e-07 1.07243e-07)
(-1.99985e-07 6.26224e-07 7.27984e-08)
(-2.008e-07 5.06031e-07 -3.15534e-09)
(-2.01742e-07 3.49825e-07 -7.62492e-08)
(-2.02594e-07 1.88335e-07 -1.33858e-07)
(-2.03119e-07 1.15285e-08 -1.54983e-07)
(-2.03381e-07 -1.66778e-07 -1.60658e-07)
(-2.03657e-07 -3.25663e-07 -1.5364e-07)
(-2.04024e-07 -4.89704e-07 -1.51604e-07)
(-2.04442e-07 -6.3669e-07 -1.49276e-07)
(-2.0492e-07 -7.66026e-07 -1.64007e-07)
(-2.05545e-07 -8.73977e-07 -2.04326e-07)
(-2.0619e-07 -8.82659e-07 -2.41313e-07)
(-2.0668e-07 -7.87708e-07 -1.80461e-07)
(-2.06957e-07 -6.75172e-07 -5.83068e-08)
(-2.07009e-07 -5.04795e-07 6.17764e-08)
(-2.06715e-07 -3.3021e-07 1.65324e-07)
(-2.0624e-07 -1.24757e-07 1.62423e-07)
(-2.05804e-07 -3.10185e-08 1.00512e-07)
(-2.05503e-07 -2.54666e-08 -3.90915e-08)
(-2.05251e-07 -1.5538e-07 -2.52228e-07)
(-2.0497e-07 -3.22061e-07 -3.96666e-07)
(-2.04753e-07 -8.16415e-08 -5.02312e-07)
(-1.7221e-07 7.57797e-07 -4.34281e-07)
(-1.73782e-07 4.24512e-07 -2.69277e-07)
(-1.75091e-07 4.29487e-07 -2.14879e-07)
(-1.76116e-07 3.77311e-07 -1.68809e-07)
(-1.76934e-07 3.29529e-07 -1.68055e-07)
(-1.77466e-07 3.61828e-07 -1.85598e-07)
(-1.77789e-07 4.28488e-07 -1.5148e-07)
(-1.77262e-07 5.30293e-07 -8.77534e-08)
(-1.76413e-07 5.6065e-07 -3.46144e-08)
(-1.75749e-07 6.33707e-07 -3.48935e-08)
(-1.74967e-07 6.26061e-07 -9.71324e-08)
(-1.74152e-07 5.06058e-07 -1.67783e-07)
(-1.73236e-07 3.5019e-07 -2.36504e-07)
(-1.72481e-07 1.87892e-07 -2.76695e-07)
(-1.72015e-07 1.14693e-08 -2.79113e-07)
(-1.714e-07 -1.66712e-07 -2.62985e-07)
(-1.70431e-07 -3.25571e-07 -2.26287e-07)
(-1.69208e-07 -4.89659e-07 -1.93407e-07)
(-1.67964e-07 -6.36577e-07 -1.60225e-07)
(-1.66914e-07 -7.66156e-07 -1.35748e-07)
(-1.66004e-07 -8.73962e-07 -1.31426e-07)
(-1.65214e-07 -8.82715e-07 -1.50418e-07)
(-1.6455e-07 -7.85382e-07 -1.2961e-07)
(-1.64034e-07 -6.796e-07 -5.76201e-08)
(-1.63692e-07 -5.00374e-07 7.92404e-10)
(-1.63545e-07 -3.31691e-07 2.43757e-08)
(-1.63704e-07 -1.24073e-07 -1.2302e-08)
(-1.6415e-07 -3.09683e-08 -7.05837e-08)
(-1.65093e-07 -2.55492e-08 -1.79062e-07)
(-1.66643e-07 -1.52887e-07 -2.961e-07)
(-1.68559e-07 -3.22073e-07 -3.77273e-07)
(-1.70497e-07 -8.16826e-08 -4.23858e-07)
(-4.15226e-07 7.5795e-07 -5.16097e-07)
(-4.15176e-07 4.24441e-07 -2.7096e-07)
(-4.15105e-07 4.29659e-07 -1.46318e-07)
(-4.15031e-07 3.77308e-07 -8.45874e-08)
(-4.1506e-07 3.29594e-07 -8.05746e-08)
(-4.15086e-07 3.62879e-07 -1.03363e-07)
(-4.15149e-07 4.25371e-07 -1.16982e-07)
(-4.14917e-07 5.31205e-07 -9.198e-08)
(-4.14414e-07 5.58707e-07 -4.556e-08)
(-4.14323e-07 6.33867e-07 -4.30339e-08)
(-4.14442e-07 6.2593e-07 -8.27977e-08)
(-4.1456e-07 5.06041e-07 -1.16934e-07)
(-4.14642e-07 3.50369e-07 -1.59574e-07)
(-4.14682e-07 1.87561e-07 -1.7827e-07)
(-4.14716e-07 1.12777e-08 -1.74099e-07)
(-4.14802e-07 -1.66929e-07 -1.47655e-07)
(-4.14904e-07 -3.25732e-07 -1.04638e-07)
(-4.1497e-07 -4.89675e-07 -7.2153e-08)
(-4.15015e-07 -6.36592e-07 -4.76463e-08)
(-4.15011e-07 -7.66338e-07 -3.70275e-08)
(-4.15e-07 -8.73955e-07 -4.00851e-08)
(-4.15116e-07 -8.82847e-07 -6.44122e-08)
(-4.15227e-07 -7.83545e-07 -9.05885e-08)
(-4.15323e-07 -6.8275e-07 -6.06901e-08)
(-4.15453e-07 -4.97581e-07 -8.32892e-09)
(-4.15365e-07 -3.32603e-07 8.91296e-09)
(-4.153e-07 -1.2324e-07 -1.75974e-08)
(-4.15305e-07 -3.09353e-08 -5.31015e-08)
(-4.15314e-07 -2.55533e-08 -1.42675e-07)
(-4.15318e-07 -1.50753e-07 -2.18287e-07)
(-4.1532e-07 -3.22069e-07 -3.12769e-07)
(-4.1531e-07 -8.15551e-08 -4.68144e-07)
(-2.55114e-07 7.58058e-07 -5.7045e-07)
(-2.5514e-07 4.2445e-07 -3.21527e-07)
(-2.55082e-07 4.29812e-07 -1.70424e-07)
(-2.55018e-07 3.77317e-07 -1.03794e-07)
(-2.55043e-07 3.29651e-07 -9.55532e-08)
(-2.55086e-07 3.63672e-07 -1.08022e-07)
(-2.55168e-07 4.23628e-07 -1.32685e-07)
(-2.54989e-07 5.31892e-07 -1.31328e-07)
(-2.54839e-07 5.57671e-07 -9.86005e-08)
(-2.54858e-07 6.33972e-07 -1.04881e-07)
(-2.5481e-07 6.25788e-07 -1.28713e-07)
(-2.54825e-07 5.05998e-07 -1.51152e-07)
(-2.54802e-07 3.50426e-07 -1.78948e-07)
(-2.54737e-07 1.8742e-07 -1.87784e-07)
(-2.54644e-07 1.12016e-08 -1.7901e-07)
(-2.54515e-07 -1.67315e-07 -1.51289e-07)
(-2.54358e-07 -3.26019e-07 -1.10258e-07)
(-2.54213e-07 -4.89714e-07 -7.56793e-08)
(-2.54109e-07 -6.36647e-07 -5.08507e-08)
(-2.54009e-07 -7.66451e-07 -4.54379e-08)
(-2.53952e-07 -8.73963e-07 -5.26519e-08)
(-2.54006e-07 -8.82968e-07 -7.15665e-08)
(-2.54079e-07 -7.8237e-07 -1.06793e-07)
(-2.54142e-07 -6.84537e-07 -1.03585e-07)
(-2.54118e-07 -4.96192e-07 -6.83373e-08)
(-2.54098e-07 -3.33214e-07 -6.21808e-08)
(-2.54233e-07 -1.22437e-07 -8.13667e-08)
(-2.54361e-07 -3.09202e-08 -1.22357e-07)
(-2.54509e-07 -2.55421e-08 -2.19059e-07)
(-2.54702e-07 -1.49192e-07 -3.01336e-07)
(-2.54909e-07 -3.22061e-07 -3.99185e-07)
(-2.55048e-07 -8.13958e-08 -5.94219e-07)
(-2.19569e-08 7.58059e-07 -5.73318e-07)
(-2.20319e-08 4.24398e-07 -3.72518e-07)
(-2.20896e-08 4.29849e-07 -2.40374e-07)
(-2.21101e-08 3.77286e-07 -1.73077e-07)
(-2.21529e-08 3.29705e-07 -1.51445e-07)
(-2.21817e-08 3.64098e-07 -1.40606e-07)
(-2.22259e-08 4.22977e-07 -1.54937e-07)
(-2.22219e-08 5.32186e-07 -1.62074e-07)
(-2.22237e-08 5.57043e-07 -1.47426e-07)
(-2.22138e-08 6.34143e-07 -1.6484e-07)
(-2.21738e-08 6.25732e-07 -1.88035e-07)
(-2.21492e-08 5.0605e-07 -2.19443e-07)
(-2.21003e-08 3.50484e-07 -2.49345e-07)
(-2.20558e-08 1.87373e-07 -2.67601e-07)
(-2.20083e-08 1.12414e-08 -2.63775e-07)
(-2.19079e-08 -1.67601e-07 -2.33454e-07)
(-2.18108e-08 -3.26234e-07 -1.90086e-07)
(-2.17134e-08 -4.897e-07 -1.52202e-07)
(-2.16435e-08 -6.36741e-07 -1.18666e-07)
(-2.15851e-08 -7.66568e-07 -1.04636e-07)
(-2.15332e-08 -8.73972e-07 -1.01076e-07)
(-2.15261e-08 -8.83e-07 -1.02577e-07)
(-2.15131e-08 -7.81778e-07 -1.28024e-07)
(-2.1507e-08 -6.85164e-07 -1.38457e-07)
(-2.15011e-08 -4.95744e-07 -1.22549e-07)
(-2.15141e-08 -3.3358e-07 -1.30149e-07)
(-2.15743e-08 -1.21841e-07 -1.48984e-07)
(-2.16225e-08 -3.09314e-08 -2.00181e-07)
(-2.16662e-08 -2.55594e-08 -3.00745e-07)
(-2.17507e-08 -1.48304e-07 -4.0312e-07)
(-2.18488e-08 -3.22112e-07 -4.88427e-07)
(-2.19157e-08 -8.13085e-08 -6.38945e-07)
(-4.40825e-08 7.58078e-07 -5.54494e-07)
(-4.40315e-08 4.24435e-07 -3.84515e-07)
(-4.37876e-08 4.30007e-07 -2.82795e-07)
(-4.35507e-08 3.77343e-07 -2.30359e-07)
(-4.34262e-08 3.29794e-07 -2.06289e-07)
(-4.33159e-08 3.64261e-07 -1.86162e-07)
(-4.32731e-08 4.22925e-07 -1.84781e-07)
(-4.32826e-08 5.32242e-07 -1.87118e-07)
(-4.32961e-08 5.56947e-07 -1.79132e-07)
(-4.33046e-08 6.3419e-07 -1.9327e-07)
(-4.34046e-08 6.25642e-07 -2.22483e-07)
(-4.3533e-08 5.06027e-07 -2.67268e-07)
(-4.36783e-08 3.5042e-07 -3.09803e-07)
(-4.37588e-08 1.87361e-07 -3.31935e-07)
(-4.37775e-08 1.13109e-08 -3.29365e-07)
(-4.39561e-08 -1.67883e-07 -2.95384e-07)
(-4.42464e-08 -3.26489e-07 -2.56424e-07)
(-4.44958e-08 -4.8979e-07 -2.23188e-07)
(-4.47366e-08 -6.36921e-07 -1.8705e-07)
(-4.49709e-08 -7.66721e-07 -1.68397e-07)
(-4.50579e-08 -8.74002e-07 -1.60124e-07)
(-4.51221e-08 -8.83055e-07 -1.52649e-07)
(-4.51865e-08 -7.8161e-07 -1.61699e-07)
(-4.51983e-08 -6.85229e-07 -1.69471e-07)
(-4.51956e-08 -4.9581e-07 -1.6172e-07)
(-4.51843e-08 -3.336e-07 -1.68744e-07)
(-4.51643e-08 -1.21369e-07 -1.94484e-07)
(-4.50971e-08 -3.08926e-08 -2.53853e-07)
(-4.49558e-08 -2.54812e-08 -3.55143e-07)
(-4.46951e-08 -1.47831e-07 -4.5088e-07)
(-4.44299e-08 -3.22028e-07 -5.1297e-07)
(-4.41975e-08 -8.11593e-08 -5.8143e-07)
(3.08658e-07 7.58119e-07 -5.49853e-07)
(3.08338e-07 4.24211e-07 -3.66862e-07)
(3.07717e-07 4.29901e-07 -2.73703e-07)
(3.07253e-07 3.77206e-07 -2.34283e-07)
(3.06831e-07 3.29606e-07 -2.16048e-07)
(3.06585e-07 3.64137e-07 -2.03153e-07)
(3.06476e-07 4.23004e-07 -2.022e-07)
(3.06419e-07 5.32176e-07 -2.03448e-07)
(3.06371e-07 5.57084e-07 -2.02151e-07)
(3.06421e-07 6.34229e-07 -2.16288e-07)
(3.06551e-07 6.25662e-07 -2.46277e-07)
(3.06869e-07 5.06179e-07 -2.81549e-07)
(3.07235e-07 3.50492e-07 -3.11237e-07)
(3.07498e-07 1.87436e-07 -3.23852e-07)
(3.07723e-07 1.14941e-08 -3.17788e-07)
(3.08235e-07 -1.6775e-07 -2.91681e-07)
(3.09033e-07 -3.26252e-07 -2.5764e-07)
(3.09891e-07 -4.89496e-07 -2.24183e-07)
(3.10669e-07 -6.36647e-07 -1.91671e-07)
(3.11196e-07 -7.66465e-07 -1.77488e-07)
(3.11581e-07 -8.73884e-07 -1.74628e-07)
(3.11837e-07 -8.83005e-07 -1.76327e-07)
(3.11946e-07 -7.81574e-07 -1.84775e-07)
(3.11969e-07 -6.85037e-07 -1.92668e-07)
(3.11979e-07 -4.96181e-07 -1.94099e-07)
(3.11963e-07 -3.33523e-07 -2.05203e-07)
(3.11854e-07 -1.21026e-07 -2.32874e-07)
(3.11557e-07 -3.10476e-08 -2.74049e-07)
(3.11037e-07 -2.56548e-08 -3.427e-07)
(3.10334e-07 -1.48012e-07 -4.12043e-07)
(3.09573e-07 -3.22259e-07 -4.69718e-07)
(3.08882e-07 -8.12718e-08 -5.22924e-07)
(3.41298e-07 7.58361e-07 -5.15088e-07)
(3.41874e-07 4.24544e-07 -3.27876e-07)
(3.42647e-07 4.30025e-07 -2.40558e-07)
(3.43243e-07 3.77272e-07 -2.10286e-07)
(3.43462e-07 3.29368e-07 -2.01428e-07)
(3.43576e-07 3.63899e-07 -1.99842e-07)
(3.43678e-07 4.23454e-07 -2.07172e-07)
(3.43624e-07 5.32027e-07 -2.13585e-07)
(3.43517e-07 5.57557e-07 -2.17413e-07)
(3.43434e-07 6.34191e-07 -2.30362e-07)
(3.43211e-07 6.25573e-07 -2.50235e-07)
(3.42851e-07 5.06159e-07 -2.72011e-07)
(3.42315e-07 3.50038e-07 -2.89089e-07)
(3.41673e-07 1.86915e-07 -2.9219e-07)
(3.4092e-07 1.09302e-08 -2.82622e-07)
(3.39896e-07 -1.68362e-07 -2.5782e-07)
(3.38705e-07 -3.26793e-07 -2.23298e-07)
(3.3757e-07 -4.89696e-07 -1.89834e-07)
(3.369e-07 -6.36468e-07 -1.63607e-07)
(3.36728e-07 -7.66158e-07 -1.59294e-07)
(3.36483e-07 -8.73973e-07 -1.69542e-07)
(3.36083e-07 -8.83045e-07 -1.80391e-07)
(3.35895e-07 -7.81784e-07 -1.9418e-07)
(3.35835e-07 -6.84418e-07 -2.08449e-07)
(3.35867e-07 -4.97085e-07 -2.1584e-07)
(3.3596e-07 -3.32973e-07 -2.2802e-07)
(3.36162e-07 -1.20557e-07 -2.42913e-07)
(3.36607e-07 -3.09159e-08 -2.63734e-07)
(3.37562e-07 -2.53323e-08 -3.04114e-07)
(3.3865e-07 -1.47531e-07 -3.61101e-07)
(3.39807e-07 -3.21947e-07 -4.23117e-07)
(3.40845e-07 -8.10362e-08 -4.87446e-07)
(6.68547e-07 7.58401e-07 -4.37098e-07)
(6.68155e-07 4.25035e-07 -2.60352e-07)
(6.67967e-07 4.30403e-07 -2.02242e-07)
(6.67935e-07 3.77538e-07 -1.95319e-07)
(6.6784e-07 3.29323e-07 -1.98773e-07)
(6.67724e-07 3.6361e-07 -2.07174e-07)
(6.67641e-07 4.24418e-07 -2.15671e-07)
(6.67481e-07 5.31783e-07 -2.25656e-07)
(6.67373e-07 5.5864e-07 -2.31471e-07)
(6.67401e-07 6.34126e-07 -2.4465e-07)
(6.67457e-07 6.25481e-07 -2.60623e-07)
(6.67708e-07 5.06079e-07 -2.76362e-07)
(6.67954e-07 3.49274e-07 -2.87859e-07)
(6.68177e-07 1.86427e-07 -2.83727e-07)
(6.6858e-07 1.04264e-08 -2.65409e-07)
(6.69182e-07 -1.68994e-07 -2.42239e-07)
(6.6979e-07 -3.27477e-07 -2.08712e-07)
(6.70327e-07 -4.90154e-07 -1.71255e-07)
(6.70545e-07 -6.36789e-07 -1.54512e-07)
(6.70699e-07 -7.66159e-07 -1.59724e-07)
(6.70885e-07 -8.74121e-07 -1.79558e-07)
(6.71088e-07 -8.8311e-07 -1.96948e-07)
(6.71199e-07 -7.82364e-07 -2.10106e-07)
(6.71276e-07 -6.83372e-07 -2.27635e-07)
(6.71338e-07 -4.98848e-07 -2.36619e-07)
(6.71217e-07 -3.31891e-07 -2.51892e-07)
(6.71025e-07 -1.20309e-07 -2.62469e-07)
(6.70794e-07 -3.06966e-08 -2.70815e-07)
(6.70516e-07 -2.48823e-08 -2.87683e-07)
(6.69988e-07 -1.47002e-07 -3.30096e-07)
(6.69399e-07 -3.21514e-07 -3.674e-07)
(6.68955e-07 -8.07623e-08 -3.87646e-07)
(5.94373e-07 7.58265e-07 -3.97987e-07)
(5.94449e-07 4.24924e-07 -2.35675e-07)
(5.94487e-07 4.30404e-07 -1.9564e-07)
(5.94506e-07 3.77514e-07 -2.01205e-07)
(5.94561e-07 3.29281e-07 -2.00363e-07)
(5.94659e-07 3.63188e-07 -2.09482e-07)
(5.94738e-07 4.25769e-07 -2.2643e-07)
(5.94772e-07 5.31565e-07 -2.38736e-07)
(5.94764e-07 5.60469e-07 -2.36158e-07)
(5.94682e-07 6.34029e-07 -2.45369e-07)
(5.94643e-07 6.25552e-07 -2.62104e-07)
(5.94638e-07 5.06261e-07 -2.72677e-07)
(5.94636e-07 3.48924e-07 -2.8063e-07)
(5.94652e-07 1.86522e-07 -2.6921e-07)
(5.94544e-07 1.05584e-08 -2.45583e-07)
(5.9441e-07 -1.6881e-07 -2.14363e-07)
(5.94272e-07 -3.27321e-07 -1.79931e-07)
(5.94131e-07 -4.90092e-07 -1.56387e-07)
(5.94026e-07 -6.37083e-07 -1.53e-07)
(5.93944e-07 -7.66279e-07 -1.66752e-07)
(5.93856e-07 -8.74081e-07 -1.85104e-07)
(5.93828e-07 -8.83042e-07 -2.04978e-07)
(5.93833e-07 -7.83318e-07 -2.23643e-07)
(5.93645e-07 -6.82366e-07 -2.43573e-07)
(5.93532e-07 -5.01584e-07 -2.46877e-07)
(5.93581e-07 -3.30361e-07 -2.63488e-07)
(5.93631e-07 -1.20519e-07 -2.78962e-07)
(5.93699e-07 -3.07947e-08 -2.84671e-07)
(5.93796e-07 -2.49527e-08 -2.91165e-07)
(5.93935e-07 -1.47556e-07 -3.29787e-07)
(5.94104e-07 -3.2165e-07 -3.52048e-07)
(5.94267e-07 -8.089e-08 -3.29093e-07)
(6.00348e-07 7.5836e-07 -3.98398e-07)
(6.00229e-07 4.25126e-07 -2.40309e-07)
(6.00019e-07 4.30416e-07 -1.92418e-07)
(5.99801e-07 3.77636e-07 -1.81647e-07)
(5.996e-07 3.29432e-07 -1.77166e-07)
(5.99321e-07 3.62843e-07 -1.86667e-07)
(5.98757e-07 4.27371e-07 -2.15456e-07)
(5.98064e-07 5.31404e-07 -2.23678e-07)
(5.97579e-07 5.63146e-07 -2.12743e-07)
(5.97175e-07 6.33867e-07 -2.15104e-07)
(5.96994e-07 6.25611e-07 -2.30764e-07)
(5.97032e-07 5.06344e-07 -2.4413e-07)
(5.97121e-07 3.48514e-07 -2.5651e-07)
(5.973e-07 1.86487e-07 -2.46431e-07)
(5.97526e-07 1.02337e-08 -2.2235e-07)
(5.97809e-07 -1.69094e-07 -1.88348e-07)
(5.9818e-07 -3.27614e-07 -1.54428e-07)
(5.98613e-07 -4.90379e-07 -1.34951e-07)
(5.99089e-07 -6.37413e-07 -1.31203e-07)
(5.99554e-07 -7.66649e-07 -1.40831e-07)
(5.99922e-07 -8.74171e-07 -1.61515e-07)
(6.00217e-07 -8.83022e-07 -1.84272e-07)
(6.00382e-07 -7.84559e-07 -2.13764e-07)
(6.00311e-07 -6.81441e-07 -2.29962e-07)
(6.00389e-07 -5.04863e-07 -2.26996e-07)
(6.00502e-07 -3.2832e-07 -2.42847e-07)
(6.00465e-07 -1.20818e-07 -2.61962e-07)
(6.00507e-07 -3.07607e-08 -2.73227e-07)
(6.00561e-07 -2.48085e-08 -2.79864e-07)
(6.00564e-07 -1.48284e-07 -3.28125e-07)
(6.00507e-07 -3.21524e-07 -3.53805e-07)
(6.00436e-07 -8.08022e-08 -3.10821e-07)
(5.62028e-07 7.58325e-07 -3.44757e-07)
(5.61932e-07 4.25454e-07 -2.16164e-07)
(5.61819e-07 4.30333e-07 -1.61995e-07)
(5.61731e-07 3.77816e-07 -1.38907e-07)
(5.61693e-07 3.2954e-07 -1.28877e-07)
(5.61695e-07 3.62443e-07 -1.36676e-07)
(5.61881e-07 4.28992e-07 -1.6928e-07)
(5.61816e-07 5.30945e-07 -1.63309e-07)
(5.61704e-07 5.66632e-07 -1.40288e-07)
(5.61671e-07 6.33622e-07 -1.35552e-07)
(5.61628e-07 6.25689e-07 -1.50734e-07)
(5.61711e-07 5.06431e-07 -1.68442e-07)
(5.61809e-07 3.48138e-07 -1.88945e-07)
(5.61935e-07 1.86601e-07 -1.87954e-07)
(5.62058e-07 9.90394e-09 -1.70304e-07)
(5.62182e-07 -1.69335e-07 -1.39612e-07)
(5.62304e-07 -3.27856e-07 -1.02588e-07)
(5.62426e-07 -4.90608e-07 -8.1034e-08)
(5.62519e-07 -6.37564e-07 -7.4444e-08)
(5.6261e-07 -7.66906e-07 -8.32829e-08)
(5.62672e-07 -8.74201e-07 -1.06463e-07)
(5.62684e-07 -8.82995e-07 -1.31123e-07)
(5.62649e-07 -7.85753e-07 -1.65828e-07)
(5.62618e-07 -6.79895e-07 -1.74526e-07)
(5.62565e-07 -5.0862e-07 -1.60219e-07)
(5.6251e-07 -3.25952e-07 -1.75181e-07)
(5.62458e-07 -1.21436e-07 -2.00284e-07)
(5.62356e-07 -3.0799e-08 -2.2115e-07)
(5.62335e-07 -2.47588e-08 -2.34031e-07)
(5.62256e-07 -1.49677e-07 -2.91043e-07)
(5.62188e-07 -3.21481e-07 -3.24437e-07)
(5.62141e-07 -8.08803e-08 -2.89579e-07)
(5.78881e-07 7.58331e-07 -1.78593e-07)
(5.7895e-07 4.26105e-07 -1.50041e-07)
(5.78944e-07 4.30238e-07 -1.27494e-07)
(5.78878e-07 3.78032e-07 -1.23475e-07)
(5.78854e-07 3.29648e-07 -1.28084e-07)
(5.78832e-07 3.6198e-07 -1.51219e-07)
(5.78685e-07 4.30143e-07 -1.73977e-07)
(5.78292e-07 5.30193e-07 -1.52738e-07)
(5.78174e-07 5.70301e-07 -1.16502e-07)
(5.78156e-07 6.33387e-07 -1.01598e-07)
(5.78052e-07 6.2577e-07 -1.12294e-07)
(5.78018e-07 5.0644e-07 -1.39088e-07)
(5.77926e-07 3.47676e-07 -1.70038e-07)
(5.77838e-07 1.86646e-07 -1.75337e-07)
(5.77722e-07 9.39777e-09 -1.60932e-07)
(5.77591e-07 -1.69731e-07 -1.33667e-07)
(5.77494e-07 -3.28236e-07 -9.82956e-08)
(5.77407e-07 -4.90958e-07 -7.77208e-08)
(5.77339e-07 -6.37735e-07 -6.57486e-08)
(5.77322e-07 -7.67189e-07 -7.78741e-08)
(5.7732e-07 -8.7422e-07 -1.07195e-07)
(5.77341e-07 -8.82971e-07 -1.40615e-07)
(5.77464e-07 -7.86507e-07 -1.66839e-07)
(5.77658e-07 -6.77803e-07 -1.55227e-07)
(5.77667e-07 -5.12164e-07 -1.2843e-07)
(5.77699e-07 -3.23426e-07 -1.36614e-07)
(5.77824e-07 -1.22089e-07 -1.6551e-07)
(5.77897e-07 -3.07422e-08 -1.99586e-07)
(5.78121e-07 -2.45879e-08 -2.23239e-07)
(5.78321e-07 -1.51415e-07 -2.73634e-07)
(5.78561e-07 -3.21266e-07 -2.90066e-07)
(5.78815e-07 -8.08318e-08 -2.5526e-07)
(5.77898e-07 7.5834e-07 6.11568e-09)
(5.77786e-07 4.26992e-07 -3.12136e-08)
(5.77629e-07 4.30117e-07 -3.61245e-08)
(5.77513e-07 3.78265e-07 -6.4373e-08)
(5.77458e-07 3.2976e-07 -9.98567e-08)
(5.77511e-07 3.61513e-07 -1.39467e-07)
(5.77474e-07 4.30681e-07 -1.56341e-07)
(5.77387e-07 5.29543e-07 -1.28995e-07)
(5.77275e-07 5.73087e-07 -9.22523e-08)
(5.7713e-07 6.33177e-07 -6.60118e-08)
(5.77128e-07 6.25789e-07 -6.54865e-08)
(5.77137e-07 5.06408e-07 -9.34137e-08)
(5.77206e-07 3.47234e-07 -1.3401e-07)
(5.77277e-07 1.86603e-07 -1.45513e-07)
(5.77339e-07 8.9319e-09 -1.31983e-07)
(5.77469e-07 -1.70129e-07 -1.10457e-07)
(5.77589e-07 -3.28621e-07 -8.06567e-08)
(5.77716e-07 -4.91316e-07 -5.92116e-08)
(5.77805e-07 -6.37904e-07 -4.99122e-08)
(5.77883e-07 -7.67483e-07 -7.27342e-08)
(5.77934e-07 -8.74235e-07 -1.06866e-07)
(5.77934e-07 -8.82942e-07 -1.38399e-07)
(5.78002e-07 -7.86863e-07 -1.50585e-07)
(5.77877e-07 -6.76284e-07 -1.29286e-07)
(5.77921e-07 -5.14299e-07 -1.01343e-07)
(5.78034e-07 -3.21784e-07 -9.78565e-08)
(5.7795e-07 -1.22453e-07 -1.20667e-07)
(5.77989e-07 -3.06456e-08 -1.61466e-07)
(5.77984e-07 -2.44042e-08 -1.94717e-07)
(5.7794e-07 -1.53504e-07 -2.25416e-07)
(5.77965e-07 -3.20981e-07 -2.04161e-07)
(5.78001e-07 -8.07635e-08 -1.81831e-07)
(4.45505e-07 7.58326e-07 7.2943e-08)
(4.45408e-07 4.28001e-07 5.20454e-08)
(4.45268e-07 4.3008e-07 1.12841e-07)
(4.45018e-07 3.78602e-07 1.27346e-07)
(4.44642e-07 3.30017e-07 8.37273e-08)
(4.44214e-07 3.61136e-07 2.42602e-08)
(4.43678e-07 4.31377e-07 1.28133e-08)
(4.4333e-07 5.29314e-07 3.38763e-08)
(4.43131e-07 5.74968e-07 5.34205e-08)
(4.42987e-07 6.33146e-07 7.78532e-08)
(4.42944e-07 6.2581e-07 9.52711e-08)
(4.42902e-07 5.06436e-07 7.20711e-08)
(4.42837e-07 3.46905e-07 2.80515e-08)
(4.42802e-07 1.86615e-07 1.43958e-08)
(4.42882e-07 8.6931e-09 2.41964e-08)
(4.4309e-07 -1.70388e-07 4.20684e-08)
(4.43341e-07 -3.28896e-07 6.86545e-08)
(4.4364e-07 -4.91574e-07 8.84949e-08)
(4.43885e-07 -6.38055e-07 9.26449e-08)
(4.44112e-07 -7.67735e-07 7.26596e-08)
(4.44261e-07 -8.74264e-07 3.65564e-08)
(4.44337e-07 -8.8295e-07 1.71573e-09)
(4.44451e-07 -7.87191e-07 9.80719e-09)
(4.44367e-07 -6.75446e-07 3.50789e-08)
(4.44434e-07 -5.15361e-07 5.08206e-08)
(4.44528e-07 -3.2107e-07 6.08196e-08)
(4.44458e-07 -1.2272e-07 5.27905e-08)
(4.44571e-07 -3.06591e-08 1.31851e-09)
(4.44743e-07 -2.4324e-08 -5.61629e-08)
(4.44987e-07 -1.56071e-07 -9.87427e-08)
(4.45324e-07 -3.20771e-07 -1.02879e-07)
(4.45542e-07 -8.07976e-08 -1.21502e-08)
(1.41625e-07 7.58353e-07 5.37445e-08)
(1.41618e-07 4.29119e-07 1.20061e-07)
(1.41532e-07 4.30053e-07 1.18775e-07)
(1.41456e-07 3.79052e-07 8.1218e-08)
(1.41425e-07 3.30391e-07 1.91592e-08)
(1.41531e-07 3.60703e-07 -1.89929e-08)
(1.41382e-07 4.32213e-07 -1.34097e-08)
(1.41212e-07 5.29039e-07 -9.80249e-10)
(1.40991e-07 5.76321e-07 1.33766e-08)
(1.40715e-07 6.33074e-07 4.27342e-08)
(1.40727e-07 6.25836e-07 5.27132e-08)
(1.40769e-07 5.06458e-07 1.84112e-08)
(1.40819e-07 3.46602e-07 -1.46048e-08)
(1.40899e-07 1.86618e-07 -3.08278e-08)
(1.40959e-07 8.47297e-09 -2.72597e-08)
(1.41102e-07 -1.70639e-07 -9.39067e-09)
(1.41189e-07 -3.29182e-07 1.89042e-08)
(1.41332e-07 -4.9186e-07 3.82106e-08)
(1.41404e-07 -6.3821e-07 4.81445e-08)
(1.415e-07 -7.68019e-07 3.61317e-08)
(1.41554e-07 -8.74298e-07 -1.18049e-08)
(1.41585e-07 -8.82962e-07 -3.28756e-08)
(1.41697e-07 -7.87601e-07 -1.37514e-08)
(1.41618e-07 -6.74597e-07 2.13902e-09)
(1.41684e-07 -5.16331e-07 1.38498e-08)
(1.41807e-07 -3.20525e-07 2.86613e-08)
(1.41674e-07 -1.23137e-07 1.20459e-08)
(1.41685e-07 -3.06615e-08 -5.12502e-08)
(1.41693e-07 -2.42522e-08 -6.36035e-08)
(1.41671e-07 -1.58807e-07 3.17726e-08)
(1.41647e-07 -3.2064e-07 1.45334e-07)
(1.4164e-07 -8.08567e-08 1.54227e-07)
(9.34024e-08 7.58334e-07 2.1182e-07)
(9.2796e-08 4.3022e-07 2.4033e-07)
(9.18875e-08 4.2994e-07 2.58406e-07)
(9.09864e-08 3.79697e-07 2.31738e-07)
(9.03304e-08 3.3084e-07 1.8311e-07)
(8.98446e-08 3.60073e-07 1.3854e-07)
(8.95079e-08 4.3403e-07 1.23371e-07)
(8.90516e-08 5.28167e-07 1.3722e-07)
(8.86128e-08 5.77648e-07 1.58746e-07)
(8.85418e-08 6.32961e-07 1.84591e-07)
(8.85555e-08 6.25847e-07 1.74909e-07)
(8.86339e-08 5.06415e-07 1.4086e-07)
(8.88367e-08 3.46338e-07 1.0548e-07)
(8.9126e-08 1.86541e-07 8.52931e-08)
(8.94819e-08 8.15779e-09 9.58075e-08)
(8.99668e-08 -1.70902e-07 1.16756e-07)
(9.04773e-08 -3.29528e-07 1.47685e-07)
(9.10298e-08 -4.92233e-07 1.71034e-07)
(9.15415e-08 -6.38367e-07 1.84097e-07)
(9.20428e-08 -7.68382e-07 1.72494e-07)
(9.25e-08 -8.7434e-07 1.30799e-07)
(9.28838e-08 -8.82915e-07 1.02172e-07)
(9.30606e-08 -7.88538e-07 1.09854e-07)
(9.30228e-08 -6.73068e-07 1.28885e-07)
(9.30503e-08 -5.17903e-07 1.59264e-07)
(9.29322e-08 -3.19787e-07 1.79458e-07)
(9.28631e-08 -1.23673e-07 1.55344e-07)
(9.30371e-08 -3.06663e-08 1.02198e-07)
(9.32302e-08 -2.41918e-08 7.43979e-08)
(9.34278e-08 -1.61354e-07 8.94861e-08)
(9.36181e-08 -3.2054e-07 1.65013e-07)
(9.36852e-08 -8.10159e-08 2.18505e-07)
(-4.80642e-08 7.58338e-07 2.89877e-07)
(-4.73503e-08 4.31264e-07 3.23926e-07)
(-4.69393e-08 4.29853e-07 3.16796e-07)
(-4.66824e-08 3.80447e-07 2.78605e-07)
(-4.64354e-08 3.31265e-07 2.39313e-07)
(-4.62028e-08 3.58994e-07 1.96021e-07)
(-4.59325e-08 4.37715e-07 1.66936e-07)
(-4.61282e-08 5.25539e-07 1.7773e-07)
(-4.63409e-08 5.79888e-07 1.98675e-07)
(-4.63323e-08 6.32808e-07 2.11048e-07)
(-4.6533e-08 6.259e-07 1.87344e-07)
(-4.68019e-08 5.06279e-07 1.51025e-07)
(-4.72284e-08 3.45995e-07 1.19169e-07)
(-4.77363e-08 1.86488e-07 1.06483e-07)
(-4.83599e-08 7.64073e-09 1.20841e-07)
(-4.90649e-08 -1.71127e-07 1.41646e-07)
(-4.98134e-08 -3.29905e-07 1.78091e-07)
(-5.06002e-08 -4.927e-07 2.07999e-07)
(-5.13459e-08 -6.3846e-07 2.20675e-07)
(-5.19929e-08 -7.6877e-07 2.16106e-07)
(-5.25485e-08 -8.74397e-07 1.8587e-07)
(-5.29217e-08 -8.82823e-07 1.57427e-07)
(-5.322e-08 -7.90538e-07 1.52429e-07)
(-5.33552e-08 -6.69777e-07 1.66507e-07)
(-5.35127e-08 -5.21012e-07 2.0388e-07)
(-5.36041e-08 -3.18181e-07 2.14874e-07)
(-5.33626e-08 -1.24373e-07 1.89493e-07)
(-5.29737e-08 -3.06747e-08 1.54588e-07)
(-5.23075e-08 -2.41195e-08 1.44557e-07)
(-5.13614e-08 -1.63375e-07 1.41328e-07)
(-5.0146e-08 -3.20367e-07 2.0822e-07)
(-4.89691e-08 -8.11577e-08 3.49194e-07)
(-1.8154e-07 7.58372e-07 3.39137e-07)
(-1.82239e-07 4.32071e-07 3.68696e-07)
(-1.83161e-07 4.29808e-07 3.52366e-07)
(-1.8413e-07 3.81141e-07 3.15591e-07)
(-1.84955e-07 3.31605e-07 2.91097e-07)
(-1.85631e-07 3.5772e-07 2.59076e-07)
(-1.86122e-07 4.4237e-07 2.25291e-07)
(-1.86629e-07 5.21745e-07 2.2358e-07)
(-1.86855e-07 5.82037e-07 2.35929e-07)
(-1.86713e-07 6.32611e-07 2.32157e-07)
(-1.86478e-07 6.25994e-07 2.00814e-07)
(-1.86077e-07 5.06097e-07 1.7509e-07)
(-1.856e-07 3.45681e-07 1.48155e-07)
(-1.8501e-07 1.86549e-07 1.36849e-07)
(-1.8435e-07 7.09904e-09 1.43201e-07)
(-1.8364e-07 -1.7123e-07 1.63915e-07)
(-1.82915e-07 -3.30171e-07 2.02267e-07)
(-1.82263e-07 -4.93113e-07 2.35263e-07)
(-1.81687e-07 -6.3844e-07 2.51486e-07)
(-1.81213e-07 -7.69033e-07 2.517e-07)
(-1.80841e-07 -8.74434e-07 2.33652e-07)
(-1.80499e-07 -8.8273e-07 2.14689e-07)
(-1.80291e-07 -7.92993e-07 1.99468e-07)
(-1.80152e-07 -6.65567e-07 2.02166e-07)
(-1.8017e-07 -5.24333e-07 2.31926e-07)
(-1.80236e-07 -3.15717e-07 2.30302e-07)
(-1.80201e-07 -1.25344e-07 2.01667e-07)
(-1.80271e-07 -3.06457e-08 1.92186e-07)
(-1.8037e-07 -2.40481e-08 2.00757e-07)
(-1.80566e-07 -1.64803e-07 1.94421e-07)
(-1.80817e-07 -3.20213e-07 2.45434e-07)
(-1.81084e-07 -8.11151e-08 4.38761e-07)
(-3.30698e-07 7.58401e-07 3.70086e-07)
(-3.30865e-07 4.32507e-07 3.82395e-07)
(-3.3106e-07 4.29789e-07 3.66831e-07)
(-3.31159e-07 3.81611e-07 3.41212e-07)
(-3.31175e-07 3.31799e-07 3.29612e-07)
(-3.31095e-07 3.56508e-07 3.09718e-07)
(-3.30825e-07 4.46528e-07 2.80291e-07)
(-3.30241e-07 5.18711e-07 2.70201e-07)
(-3.29973e-07 5.83142e-07 2.70307e-07)
(-3.30203e-07 6.32489e-07 2.5762e-07)
(-3.30212e-07 6.26131e-07 2.32034e-07)
(-3.3017e-07 5.05967e-07 2.11561e-07)
(-3.30126e-07 3.45492e-07 1.88783e-07)
(-3.30092e-07 1.86601e-07 1.76627e-07)
(-3.30053e-07 6.73483e-09 1.78285e-07)
(-3.30008e-07 -1.71288e-07 1.95296e-07)
(-3.29983e-07 -3.30322e-07 2.28939e-07)
(-3.29986e-07 -4.93407e-07 2.6534e-07)
(-3.30005e-07 -6.38415e-07 2.89982e-07)
(-3.30018e-07 -7.69124e-07 2.97734e-07)
(-3.30032e-07 -8.74449e-07 2.89636e-07)
(-3.30041e-07 -8.82672e-07 2.77822e-07)
(-3.29969e-07 -7.94964e-07 2.61571e-07)
(-3.30366e-07 -6.62089e-07 2.55198e-07)
(-3.30608e-07 -5.26206e-07 2.66172e-07)
(-3.30422e-07 -3.13528e-07 2.568e-07)
(-3.30482e-07 -1.26265e-07 2.36235e-07)
(-3.30514e-07 -3.06169e-08 2.36636e-07)
(-3.30548e-07 -2.39802e-08 2.52477e-07)
(-3.30556e-07 -1.65663e-07 2.38838e-07)
(-3.30555e-07 -3.20155e-07 2.71533e-07)
(-3.30603e-07 -8.1022e-08 4.59129e-07)
(-4.33626e-07 7.58514e-07 4.06384e-07)
(-4.3307e-07 4.32698e-07 3.75979e-07)
(-4.32578e-07 4.29815e-07 3.50212e-07)
(-4.32179e-07 3.8182e-07 3.30151e-07)
(-4.31852e-07 3.31836e-07 3.2498e-07)
(-4.31535e-07 3.55568e-07 3.13445e-07)
(-4.3122e-07 4.49593e-07 2.882e-07)
(-4.31081e-07 5.16436e-07 2.75502e-07)
(-4.31217e-07 5.83633e-07 2.71529e-07)
(-4.31494e-07 6.3234e-07 2.54035e-07)
(-4.31761e-07 6.26236e-07 2.36103e-07)
(-4.32044e-07 5.05879e-07 2.19027e-07)
(-4.32442e-07 3.45396e-07 2.00351e-07)
(-4.32893e-07 1.86588e-07 1.85951e-07)
(-4.33418e-07 6.55293e-09 1.8664e-07)
(-4.34009e-07 -1.71357e-07 2.07101e-07)
(-4.3461e-07 -3.30432e-07 2.38748e-07)
(-4.35169e-07 -4.9359e-07 2.6961e-07)
(-4.35563e-07 -6.38429e-07 2.92695e-07)
(-4.35737e-07 -7.69085e-07 3.02463e-07)
(-4.35871e-07 -8.74477e-07 2.98425e-07)
(-4.35981e-07 -8.82648e-07 2.89937e-07)
(-4.36084e-07 -7.9632e-07 2.73418e-07)
(-4.36181e-07 -6.59281e-07 2.62382e-07)
(-4.35837e-07 -5.27045e-07 2.68e-07)
(-4.35399e-07 -3.12002e-07 2.52077e-07)
(-4.35046e-07 -1.26923e-07 2.41059e-07)
(-4.34767e-07 -3.05771e-08 2.45139e-07)
(-4.34624e-07 -2.39619e-08 2.64829e-07)
(-4.34467e-07 -1.66076e-07 2.45095e-07)
(-4.34292e-07 -3.20154e-07 2.74885e-07)
(-4.34072e-07 -8.09235e-08 4.52216e-07)
(-2.0515e-07 7.58516e-07 4.63418e-07)
(-2.05557e-07 4.32291e-07 3.99191e-07)
(-2.05996e-07 4.29624e-07 3.51445e-07)
(-2.06409e-07 3.81581e-07 3.17302e-07)
(-2.06621e-07 3.31564e-07 3.04417e-07)
(-2.06726e-07 3.54739e-07 2.91711e-07)
(-2.06706e-07 4.51342e-07 2.72393e-07)
(-2.06719e-07 5.14369e-07 2.60129e-07)
(-2.06729e-07 5.84243e-07 2.51793e-07)
(-2.06703e-07 6.32273e-07 2.3808e-07)
(-2.06635e-07 6.26391e-07 2.23625e-07)
(-2.06502e-07 5.05962e-07 2.05634e-07)
(-2.06343e-07 3.45416e-07 1.85528e-07)
(-2.06211e-07 1.86583e-07 1.80336e-07)
(-2.06068e-07 6.64953e-09 1.91542e-07)
(-2.05753e-07 -1.7091e-07 2.25787e-07)
(-2.05387e-07 -3.30002e-07 2.57781e-07)
(-2.05026e-07 -4.93254e-07 2.79598e-07)
(-2.04772e-07 -6.38407e-07 2.96213e-07)
(-2.04636e-07 -7.68809e-07 2.99574e-07)
(-2.04461e-07 -8.74417e-07 2.90977e-07)
(-2.04251e-07 -8.82537e-07 2.77765e-07)
(-2.04154e-07 -7.97131e-07 2.62841e-07)
(-2.04153e-07 -6.56678e-07 2.52294e-07)
(-2.04181e-07 -5.28278e-07 2.52967e-07)
(-2.04216e-07 -3.112e-07 2.41621e-07)
(-2.0417e-07 -1.27455e-07 2.34413e-07)
(-2.04134e-07 -3.05309e-08 2.36797e-07)
(-2.0434e-07 -2.41009e-08 2.51915e-07)
(-2.04473e-07 -1.66341e-07 2.50628e-07)
(-2.04521e-07 -3.20237e-07 3.00468e-07)
(-2.04764e-07 -8.088e-08 4.90368e-07)
(-2.79853e-07 7.57903e-07 5.37784e-07)
(-2.7653e-07 4.31112e-07 4.4568e-07)
(-2.72327e-07 4.29268e-07 3.82361e-07)