/*--------------------------------*- C++ -*----------------------------------*\
| =========                 |                                                 |
| \\      /  F ield         | OpenFOAM: The Open Source CFD Toolbox           |
|  \\    /   O peration     | Version:  v2006                                 |
|   \\  /    A nd           | Website:  www.openfoam.com                      |
|    \\/     M anipulation  |                                                 |
\*---------------------------------------------------------------------------*/
FoamFile
{
    version     2.0;
    format      ascii;
    class       surfaceScalarField;
    location    "1360";
    object      phi;
}
// * * * * * * * * * * * * * * * * * * * * * * * * * * * * * * * * * * * * * //

dimensions      [1 0 -1 0 0 0 0];
oriented        oriented;


internalField   nonuniform List<scalar> 
95232
(
-2.23199e-08
3.09445e-08
-1.02808e-08
-2.23202e-08
1.8062e-08
-7.99178e-09
-2.23206e-08
1.81936e-08
-9.03795e-09
-2.2321e-08
1.62157e-08
-1.01362e-08
-2.23217e-08
1.41084e-08
-1.1722e-08
-2.23225e-08
1.54281e-08
-1.12138e-08
-2.23244e-08
1.82051e-08
-7.6731e-09
-2.23241e-08
2.16447e-08
-2.21566e-09
-2.2324e-08
2.29168e-08
2.30506e-09
-2.23239e-08
2.48649e-08
6.50373e-09
-2.23238e-08
2.39685e-08
7.29395e-09
-2.23236e-08
1.90463e-08
3.77523e-09
-2.23234e-08
1.27433e-08
4.79671e-10
-2.23233e-08
6.56293e-09
-2.71588e-09
-2.23233e-08
6.06826e-11
-4.97449e-09
-2.23233e-08
-6.29596e-09
-6.12864e-09
-2.23233e-08
-1.19738e-08
-6.59543e-09
-2.23234e-08
-1.79487e-08
-7.26237e-09
-2.23235e-08
-2.34642e-08
-7.72222e-09
-2.23237e-08
-2.85521e-08
-8.32227e-09
-2.23239e-08
-3.2883e-08
-1.014e-08
-2.23241e-08
-3.36962e-08
-1.03965e-08
-2.23243e-08
-3.04393e-08
-7.43904e-09
-2.23243e-08
-2.63478e-08
-2.28095e-09
-2.23235e-08
-2.03276e-08
2.7187e-09
-2.23224e-08
-1.31e-08
7.87093e-09
-2.23217e-08
-4.85419e-09
1.04204e-08
-2.23208e-08
-1.25798e-09
8.34209e-09
-2.23202e-08
-7.3918e-10
4.06526e-09
-2.23199e-08
-5.63101e-09
-4.54481e-09
-2.23198e-08
-1.17781e-08
-1.02168e-08
-2.39458e-09
-1.3001e-08
-6.36813e-09
3.09506e-08
-1.02066e-08
-6.3682e-09
1.80655e-08
-3.71304e-09
-6.36832e-09
1.81968e-08
-4.633e-09
-6.3685e-09
1.62185e-08
-5.87958e-09
-6.36863e-09
1.41101e-08
-7.91146e-09
-6.36874e-09
1.543e-08
-9.08465e-09
-6.36887e-09
1.82046e-08
-6.17736e-09
-6.36825e-09
2.16457e-08
-1.53122e-09
-6.36834e-09
2.29152e-08
2.92822e-09
-6.36838e-09
2.4865e-08
5.80374e-09
-6.36855e-09
2.39685e-08
4.38173e-09
-6.3687e-09
1.9047e-08
1.39797e-09
-6.36883e-09
1.27432e-08
-1.64011e-09
-6.3689e-09
6.56315e-09
-3.90513e-09
-6.36891e-09
6.07209e-11
-4.85289e-09
-6.36894e-09
-6.29597e-09
-5.05715e-09
-6.36897e-09
-1.19739e-08
-4.76708e-09
-6.36901e-09
-1.79488e-08
-4.77365e-09
-6.36909e-09
-2.34642e-08
-4.74503e-09
-6.36912e-09
-2.85524e-08
-5.23511e-09
-6.36902e-09
-3.28829e-08
-6.8718e-09
-6.36901e-09
-3.36963e-08
-8.33544e-09
-6.36876e-09
-3.0438e-08
-5.8574e-09
-6.36865e-09
-2.63502e-08
-1.45035e-09
-6.36838e-09
-2.03261e-08
3.36764e-09
-6.36815e-09
-1.31003e-08
7.09439e-09
-6.36809e-09
-4.8538e-09
6.86387e-09
-6.36814e-09
-1.25806e-09
4.28776e-09
-6.36801e-09
-7.39052e-10
-9.83165e-10
-6.36801e-09
-5.6318e-09
-9.12444e-09
-6.36804e-09
-1.17782e-08
-1.46607e-08
-2.39457e-09
-1.83222e-08
-4.85165e-09
3.09508e-08
-1.5077e-08
-4.85133e-09
1.80656e-08
-8.50977e-09
-4.85099e-09
1.81969e-08
-5.99409e-09
-4.85061e-09
1.62187e-08
-4.11787e-09
-4.85023e-09
1.41099e-08
-3.84148e-09
-4.84978e-09
1.54301e-08
-4.39531e-09
-4.8493e-09
1.82032e-08
-3.20641e-09
-4.84843e-09
2.16463e-08
-6.41313e-10
-4.84842e-09
2.29143e-08
1.16326e-09
-4.8484e-09
2.4865e-08
9.8424e-10
-4.84844e-09
2.39685e-08
-1.57934e-09
-4.84852e-09
1.90476e-08
-4.35607e-09
-4.84863e-09
1.27429e-08
-7.19651e-09
-4.84875e-09
6.56325e-09
-8.80978e-09
-4.84887e-09
6.08246e-11
-8.9683e-09
-4.84913e-09
-6.296e-09
-8.33595e-09
-4.84951e-09
-1.19739e-08
-6.8802e-09
-4.84993e-09
-1.79489e-08
-5.556e-09
-4.85034e-09
-2.34642e-08
-4.31697e-09
-4.8508e-09
-2.85526e-08
-3.30351e-09
-4.85121e-09
-3.28829e-08
-3.07079e-09
-4.85179e-09
-3.36964e-08
-3.82706e-09
-4.8522e-09
-3.04365e-08
-2.93879e-09
-4.85271e-09
-2.63525e-08
-4.77165e-10
-4.85299e-09
-2.03249e-08
1.76688e-09
-4.85322e-09
-1.31005e-08
2.41981e-09
-4.85335e-09
-4.8533e-09
8.77685e-10
-4.85341e-09
-1.25815e-09
-1.46278e-09
-4.85313e-09
-7.38909e-10
-5.57963e-09
-4.85278e-09
-5.63255e-09
-1.00783e-08
-4.85239e-09
-1.17783e-08
-1.32635e-08
-2.3946e-09
-1.45729e-08
-1.38575e-08
3.0951e-08
-1.7386e-08
-1.38576e-08
1.80655e-08
-7.7634e-09
-1.38576e-08
1.8197e-08
-2.52666e-09
-1.38577e-08
1.62188e-08
-5.34057e-11
-1.38576e-08
1.41098e-08
4.0363e-10
-1.38577e-08
1.54302e-08
-3.10847e-10
-1.38578e-08
1.82023e-08
-9.85725e-10
-1.38573e-08
2.16469e-08
-5.72482e-12
-1.38572e-08
2.2914e-08
1.50258e-09
-1.38572e-08
2.4865e-08
1.37066e-09
-1.38572e-08
2.39685e-08
-3.50374e-10
-1.38571e-08
1.90481e-08
-1.73547e-09
-1.38571e-08
1.27429e-08
-3.52732e-09
-1.3857e-08
6.56331e-09
-4.34836e-09
-1.3857e-08
6.08603e-11
-4.23234e-09
-1.3857e-08
-6.296e-09
-3.24992e-09
-1.3857e-08
-1.19739e-08
-1.56773e-09
-1.3857e-08
-1.79489e-08
-2.16226e-10
-1.38571e-08
-2.34641e-08
7.27909e-10
-1.38571e-08
-2.85527e-08
1.18376e-09
-1.38571e-08
-3.2883e-08
1.2114e-09
-1.38572e-08
-3.36966e-08
2.67912e-10
-1.38571e-08
-3.04353e-08
-7.37065e-10
-1.38573e-08
-2.63545e-08
1.84388e-10
-1.38574e-08
-2.03243e-08
2.06872e-09
-1.38573e-08
-1.31006e-08
2.54716e-09
-1.38573e-08
-4.85283e-09
1.38239e-09
-1.38574e-08
-1.25827e-09
-6.4839e-11
-1.38574e-08
-7.38868e-10
-3.44882e-09
-1.38574e-08
-5.63318e-09
-6.3257e-09
-1.38575e-08
-1.17784e-08
-1.00045e-08
-2.39467e-09
-1.56194e-08
-7.01058e-09
3.09511e-08
-1.87311e-08
-7.01048e-09
1.80655e-08
-9.05088e-09
-7.01038e-09
1.81971e-08
-2.76059e-09
-7.01031e-09
1.62188e-08
-1.11862e-10
-7.01012e-09
1.41097e-08
4.8179e-10
-7.00989e-09
1.54302e-08
2.05278e-10
-7.00943e-09
1.82018e-08
-9.13728e-10
-7.0086e-09
2.16472e-08
-9.094e-10
-7.00824e-09
2.29135e-08
9.69295e-11
-7.00802e-09
2.48651e-08
-3.35623e-10
-7.00793e-09
2.39685e-08
-1.50516e-09
-7.00785e-09
1.90483e-08
-2.48993e-09
-7.0078e-09
1.27428e-08
-3.66965e-09
-7.0078e-09
6.56331e-09
-4.0674e-09
-7.00784e-09
6.08779e-11
-3.73937e-09
-7.00795e-09
-6.29604e-09
-2.68079e-09
-7.0081e-09
-1.1974e-08
-1.06076e-09
-7.00828e-09
-1.79491e-08
4.12255e-10
-7.00842e-09
-2.3464e-08
1.38936e-09
-7.00852e-09
-2.85528e-08
1.62211e-09
-7.00866e-09
-3.28831e-08
1.43017e-09
-7.00904e-09
-3.36966e-08
7.7816e-10
-7.00975e-09
-3.04345e-08
-6.64105e-10
-7.01033e-09
-2.63559e-08
-7.56414e-10
-7.0106e-09
-2.03236e-08
5.19094e-10
-7.01082e-09
-1.31007e-08
5.22499e-10
-7.01094e-09
-4.85238e-09
-3.78591e-10
-7.01098e-09
-1.25835e-09
-2.04912e-09
-7.01086e-09
-7.38778e-10
-5.73647e-09
-7.01075e-09
-5.63354e-09
-8.83666e-09
-7.01067e-09
-1.17784e-08
-1.26175e-08
-2.39471e-09
-1.9919e-08
2.49731e-09
3.09511e-08
-1.82226e-08
2.49728e-09
1.80654e-08
-1.03106e-08
2.49722e-09
1.81971e-08
-4.72484e-09
2.49718e-09
1.62189e-08
-2.03497e-09
2.49713e-09
1.41094e-08
-9.27977e-10
2.49708e-09
1.54302e-08
-2.97812e-10
2.49701e-09
1.82014e-08
-9.91684e-10
2.49709e-09
2.16474e-08
-1.47874e-09
2.49702e-09
2.2913e-08
-1.2982e-09
2.49703e-09
2.48652e-08
-2.09587e-09
2.49698e-09
2.39685e-08
-3.21133e-09
2.49697e-09
1.90485e-08
-4.61181e-09
2.49695e-09
1.27429e-08
-5.83296e-09
2.49694e-09
6.56334e-09
-6.59514e-09
2.49694e-09
6.08995e-11
-6.39198e-09
2.49695e-09
-6.29608e-09
-5.20563e-09
2.49699e-09
-1.1974e-08
-3.51622e-09
2.49704e-09
-1.79492e-08
-1.8579e-09
2.4971e-09
-2.34639e-08
-5.20736e-10
2.49712e-09
-2.85529e-08
6.44905e-11
2.49723e-09
-3.2883e-08
2.65925e-10
2.49723e-09
-3.36967e-08
3.40354e-10
2.4973e-09
-3.04337e-08
-7.26014e-10
2.49734e-09
-2.63569e-08
-1.38798e-09
2.49741e-09
-2.03232e-08
-1.03438e-09
2.49741e-09
-1.31008e-08
-1.45256e-09
2.49742e-09
-4.85203e-09
-2.29631e-09
2.49736e-09
-1.25839e-09
-4.40873e-09
2.49738e-09
-7.38733e-10
-8.20715e-09
2.49736e-09
-5.63372e-09
-1.20707e-08
2.49735e-09
-1.17784e-08
-1.52921e-08
-2.39471e-09
-2.07898e-08
2.4311e-09
3.09512e-08
-1.65631e-08
2.43115e-09
1.80653e-08
-1.01277e-08
2.43125e-09
1.81971e-08
-5.84114e-09
2.43135e-09
1.62191e-08
-3.7131e-09
2.43146e-09
1.41092e-08
-2.61802e-09
2.43159e-09
1.54303e-08
-1.66706e-09
2.43169e-09
1.82012e-08
-1.79663e-09
2.4319e-09
2.16477e-08
-2.19344e-09
2.43199e-09
2.29128e-08
-2.21902e-09
2.43209e-09
2.48653e-08
-3.00716e-09
2.43213e-09
2.39686e-08
-4.25734e-09
2.43214e-09
1.90485e-08
-6.06971e-09
2.43215e-09
1.27429e-08
-7.75885e-09
2.43214e-09
6.56337e-09
-8.5826e-09
2.43214e-09
6.09194e-11
-8.37914e-09
2.4321e-09
-6.29616e-09
-7.04027e-09
2.43205e-09
-1.19741e-08
-5.4902e-09
2.43195e-09
-1.79497e-08
-4.00866e-09
2.43186e-09
-2.34639e-08
-2.52832e-09
2.43174e-09
-2.85531e-08
-1.69395e-09
2.43171e-09
-3.28831e-08
-1.37939e-09
2.43156e-09
-3.3697e-08
-1.0384e-09
2.43141e-09
-3.04332e-08
-1.6023e-09
2.43126e-09
-2.63578e-08
-2.24458e-09
2.43121e-09
-2.0323e-08
-2.22412e-09
2.43114e-09
-1.31008e-08
-2.71374e-09
2.43109e-09
-4.85184e-09
-3.72379e-09
2.43103e-09
-1.25843e-09
-6.06493e-09
2.43103e-09
-7.38712e-10
-9.86765e-09
2.43103e-09
-5.63374e-09
-1.33751e-08
2.43104e-09
-1.17783e-08
-1.56549e-08
-2.39465e-09
-1.79696e-08
1.6194e-08
3.09508e-08
-1.5844e-08
1.61938e-08
1.80649e-08
-9.09097e-09
1.61937e-08
1.81969e-08
-5.12557e-09
1.61936e-08
1.6219e-08
-3.50988e-09
1.61935e-08
1.41087e-08
-2.7465e-09
1.61934e-08
1.543e-08
-2.2502e-09
1.61933e-08
1.8201e-08
-2.42514e-09
1.61933e-08
2.16476e-08
-2.82878e-09
1.61933e-08
2.29126e-08
-3.16575e-09
1.61932e-08
2.48653e-08
-3.94624e-09
1.61932e-08
2.39686e-08
-5.09217e-09
1.61931e-08
1.90485e-08
-6.34397e-09
1.61931e-08
1.27429e-08
-7.42443e-09
1.61932e-08
6.56342e-09
-7.7482e-09
1.61932e-08
6.0983e-11
-7.36192e-09
1.61933e-08
-6.29599e-09
-6.2978e-09
1.61935e-08
-1.19738e-08
-4.88894e-09
1.61936e-08
-1.79497e-08
-3.49155e-09
1.61937e-08
-2.34634e-08
-2.20614e-09
1.61939e-08
-2.85527e-08
-1.61335e-09
1.61942e-08
-3.28826e-08
-1.60608e-09
1.61943e-08
-3.36966e-08
-1.67542e-09
1.61945e-08
-3.04323e-08
-2.29825e-09
1.61945e-08
-2.63579e-08
-2.97711e-09
1.61945e-08
-2.03228e-08
-3.38526e-09
1.61944e-08
-1.31009e-08
-4.01149e-09
1.61944e-08
-4.85175e-09
-5.01575e-09
1.61943e-08
-1.25849e-09
-6.56962e-09
1.61943e-08
-7.38723e-10
-9.08966e-09
1.61942e-08
-5.63385e-09
-1.15329e-08
1.61941e-08
-1.17785e-08
-1.35767e-08
-2.39476e-09
-1.51033e-08
1.74385e-08
3.09514e-08
-1.3717e-08
1.74386e-08
1.80652e-08
-7.04826e-09
1.74388e-08
1.81973e-08
-3.67437e-09
1.74389e-08
1.62195e-08
-2.52686e-09
1.74389e-08
1.41088e-08
-2.0851e-09
1.7439e-08
1.543e-08
-2.20222e-09
1.74391e-08
1.82012e-08
-2.72597e-09
1.74391e-08
2.16476e-08
-3.39071e-09
1.74391e-08
2.29126e-08
-3.92684e-09
1.7439e-08
2.48651e-08
-4.44814e-09
1.7439e-08
2.39684e-08
-5.20355e-09
1.7439e-08
1.90483e-08
-5.84204e-09
1.74389e-08
1.27427e-08
-6.26495e-09
1.74387e-08
6.56325e-09
-6.21446e-09
1.74386e-08
6.07581e-11
-5.72635e-09
1.74385e-08
-6.29625e-09
-4.80161e-09
1.74383e-08
-1.19741e-08
-3.48047e-09
1.74382e-08
-1.79503e-08
-2.17959e-09
1.74381e-08
-2.34637e-08
-1.18181e-09
1.74382e-08
-2.85528e-08
-8.66411e-10
1.74381e-08
-3.28827e-08
-1.24328e-09
1.7438e-08
-3.36968e-08
-1.90976e-09
1.7438e-08
-3.04323e-08
-2.77881e-09
1.74381e-08
-2.63581e-08
-3.68064e-09
1.7438e-08
-2.03228e-08
-4.33265e-09
1.74381e-08
-1.31008e-08
-4.78522e-09
1.7438e-08
-4.85169e-09
-5.29187e-09
1.7438e-08
-1.25847e-09
-5.93327e-09
1.7438e-08
-7.38656e-10
-7.24629e-09
1.74381e-08
-5.63362e-09
-9.12973e-09
1.74382e-08
-1.17784e-08
-1.13065e-08
-2.39457e-09
-1.30815e-08
3.01158e-08
3.09513e-08
-1.07273e-08
3.01158e-08
1.80652e-08
-4.38682e-09
3.01158e-08
1.81972e-08
-2.15003e-09
3.01157e-08
1.62195e-08
-1.95972e-09
3.01156e-08
1.41087e-08
-2.21913e-09
3.01156e-08
1.54297e-08
-2.83415e-09
3.01157e-08
1.82013e-08
-3.6447e-09
3.01155e-08
2.16474e-08
-4.39951e-09
3.01157e-08
2.29127e-08
-4.75071e-09
3.01156e-08
2.48652e-08
-5.19596e-09
3.01155e-08
2.39687e-08
-5.68756e-09
3.01155e-08
1.90484e-08
-6.13974e-09
3.01155e-08
1.27428e-08
-6.30612e-09
3.01156e-08
6.56339e-09
-5.9818e-09
3.01157e-08
6.06449e-11
-5.11229e-09
3.01158e-08
-6.29616e-09
-4.10486e-09
3.01159e-08
-1.19741e-08
-2.6956e-09
3.0116e-08
-1.79505e-08
-1.26851e-09
3.0116e-08
-2.34639e-08
-6.82144e-10
3.0116e-08
-2.85529e-08
-8.51416e-10
3.01161e-08
-3.2883e-08
-1.76254e-09
3.01163e-08
-3.36969e-08
-2.78877e-09
3.01164e-08
-3.04321e-08
-3.86353e-09
3.01165e-08
-2.63581e-08
-4.78414e-09
3.01162e-08
-2.03227e-08
-5.26025e-09
3.01163e-08
-1.31007e-08
-5.72464e-09
3.01162e-08
-4.8517e-09
-6.01062e-09
3.01162e-08
-1.25849e-09
-6.11731e-09
3.01162e-08
-7.38689e-10
-6.5745e-09
3.01161e-08
-5.63344e-09
-7.88087e-09
3.0116e-08
-1.17785e-08
-8.9437e-09
-2.39465e-09
-9.17933e-09
2.70964e-08
3.09514e-08
-9.0644e-09
2.70964e-08
1.80652e-08
-3.46812e-09
2.70964e-08
1.81972e-08
-2.19177e-09
2.70965e-08
1.62197e-08
-2.67467e-09
2.70966e-08
1.41088e-08
-3.0001e-09
2.70967e-08
1.54297e-08
-3.70563e-09
2.70966e-08
1.82016e-08
-4.68798e-09
2.70965e-08
2.16473e-08
-5.31174e-09
2.70969e-08
2.29128e-08
-5.22264e-09
2.70968e-08
2.48652e-08
-5.45283e-09
2.70968e-08
2.39687e-08
-5.8525e-09
2.70969e-08
1.90484e-08
-6.20432e-09
2.70968e-08
1.27428e-08
-6.25182e-09
2.70968e-08
6.56338e-09
-5.75996e-09
2.70967e-08
6.03907e-11
-4.67806e-09
2.70966e-08
-6.29626e-09
-3.38325e-09
2.70965e-08
-1.19742e-08
-1.94315e-09
2.70964e-08
-1.79509e-08
-1.00977e-09
2.70964e-08
-2.34641e-08
-9.84298e-10
2.70963e-08
-2.85532e-08
-1.6307e-09
2.70963e-08
-3.2883e-08
-2.70546e-09
2.70963e-08
-3.36969e-08
-3.83696e-09
2.70963e-08
-3.04322e-08
-4.99551e-09
2.70964e-08
-2.6358e-08
-5.74969e-09
2.7096e-08
-2.03228e-08
-5.88594e-09
2.70962e-08
-1.31005e-08
-6.27526e-09
2.70962e-08
-4.8517e-09
-6.60258e-09
2.70963e-08
-1.25848e-09
-6.61798e-09
2.70963e-08
-7.38687e-10
-6.68249e-09
2.70962e-08
-5.63304e-09
-7.85524e-09
2.70963e-08
-1.17784e-08
-8.31952e-09
-2.39465e-09
-6.90576e-09
2.67378e-08
3.09514e-08
-9.94128e-09
2.67377e-08
1.80653e-08
-4.34507e-09
2.67373e-08
1.81972e-08
-2.87601e-09
2.67369e-08
1.62197e-08
-2.88434e-09
2.67365e-08
1.41089e-08
-3.19731e-09
2.67362e-08
1.54295e-08
-3.94667e-09
2.67358e-08
1.82019e-08
-5.16298e-09
2.67357e-08
2.16473e-08
-5.37861e-09
2.67361e-08
2.2913e-08
-4.73021e-09
2.6736e-08
2.48652e-08
-4.63858e-09
2.67361e-08
2.39688e-08
-4.98583e-09
2.67362e-08
1.90483e-08
-5.40154e-09
2.67365e-08
1.27428e-08
-5.67453e-09
2.67369e-08
6.56332e-09
-5.26885e-09
2.67375e-08
6.01748e-11
-4.19448e-09
2.67382e-08
-6.2963e-09
-2.82444e-09
2.67389e-08
-1.19741e-08
-1.45427e-09
2.67394e-08
-1.7951e-08
-7.2405e-10
2.67397e-08
-2.34641e-08
-7.58596e-10
2.674e-08
-2.85532e-08
-1.47509e-09
2.674e-08
-3.2883e-08
-2.76688e-09
2.674e-08
-3.36969e-08
-4.03961e-09
2.674e-08
-3.04322e-08
-5.3971e-09
2.67399e-08
-2.63578e-08
-5.8102e-09
2.67395e-08
-2.03227e-08
-5.50782e-09
2.67395e-08
-1.31001e-08
-5.80222e-09
2.67393e-08
-4.85158e-09
-6.2791e-09
2.67391e-08
-1.25839e-09
-6.46552e-09
2.67387e-08
-7.3876e-10
-6.60527e-09
2.67383e-08
-5.63254e-09
-8.13381e-09
2.67381e-08
-1.17784e-08
-8.73312e-09
-2.39458e-09
-6.66008e-09
2.46544e-08
3.09514e-08
-8.86856e-09
2.46545e-08
1.80655e-08
-4.4601e-09
2.46545e-08
1.81972e-08
-2.84119e-09
2.46545e-08
1.62197e-08
-2.46588e-09
2.46545e-08
1.41089e-08
-2.54832e-09
2.46544e-08
1.54292e-08
-3.17216e-09
2.46543e-08
1.82021e-08
-4.39295e-09
2.46541e-08
2.1647e-08
-3.96804e-09
2.46544e-08
2.29133e-08
-2.67356e-09
2.46542e-08
2.4865e-08
-2.19202e-09
2.46542e-08
2.39687e-08
-2.52313e-09
2.46542e-08
1.9048e-08
-3.12649e-09
2.46541e-08
1.27427e-08
-3.80656e-09
2.4654e-08
6.56307e-09
-3.85021e-09
2.46539e-08
5.99742e-11
-3.08829e-09
2.46538e-08
-6.29638e-09
-1.85638e-09
2.46538e-08
-1.19742e-08
-4.0199e-10
2.46538e-08
-1.7951e-08
3.58959e-10
2.46538e-08
-2.34641e-08
3.37878e-10
2.46538e-08
-2.85531e-08
-4.4788e-10
2.46538e-08
-3.28831e-08
-1.80683e-09
2.46538e-08
-3.36969e-08
-3.05662e-09
2.46538e-08
-3.04323e-08
-4.4623e-09
2.46539e-08
-2.63572e-08
-4.33418e-09
2.46535e-08
-2.03227e-08
-3.51091e-09
2.46538e-08
-1.30997e-08
-3.6257e-09
2.4654e-08
-4.8515e-09
-4.33392e-09
2.46542e-08
-1.2582e-09
-4.88867e-09
2.46542e-08
-7.38755e-10
-5.38722e-09
2.46543e-08
-5.63183e-09
-7.38584e-09
2.46544e-08
-1.17782e-08
-8.42129e-09
-2.39454e-09
-6.7928e-09
2.45682e-08
3.09513e-08
-3.9128e-09
2.45681e-08
1.80656e-08
-3.10417e-09
2.45681e-08
1.81972e-08
-2.75208e-09
2.45682e-08
1.62195e-08
-3.11078e-09
2.45681e-08
1.4109e-08
-3.6173e-09
2.4568e-08
1.54289e-08
-4.67879e-09
2.45679e-08
1.82022e-08
-5.42191e-09
2.45676e-08
2.16466e-08
-4.19696e-09
2.45681e-08
2.2914e-08
-2.27025e-09
2.45681e-08
2.4865e-08
-1.35214e-09
2.45682e-08
2.39689e-08
-1.52415e-09
2.45683e-08
1.90477e-08
-2.4702e-09
2.45683e-08
1.27428e-08
-3.68094e-09
2.45684e-08
6.563e-09
-4.04273e-09
2.45684e-08
6.00672e-11
-3.56604e-09
2.45686e-08
-6.29621e-09
-2.57436e-09
2.45687e-08
-1.1974e-08
-1.30186e-09
2.45688e-08
-1.79509e-08
-6.96948e-10
2.45689e-08
-2.3464e-08
-5.51389e-10
2.4569e-08
-2.85529e-08
-1.49656e-09
2.4569e-08
-3.28831e-08
-2.93463e-09
2.4569e-08
-3.36968e-08
-4.35848e-09
2.4569e-08
-3.04324e-08
-5.29291e-09
2.45691e-08
-2.63564e-08
-4.43779e-09
2.45686e-08
-2.03234e-08
-3.05461e-09
2.45688e-08
-1.30994e-08
-2.86216e-09
2.45687e-08
-4.85165e-09
-3.70514e-09
2.45687e-08
-1.2582e-09
-4.76123e-09
2.45685e-08
-7.38956e-10
-5.69238e-09
2.45683e-08
-5.63147e-09
-7.4934e-09
2.45683e-08
-1.17782e-08
-7.92073e-09
-2.39464e-09
-6.36596e-09
2.38856e-08
3.09513e-08
1.55689e-09
2.38857e-08
1.80657e-08
8.89599e-11
2.38857e-08
1.81972e-08
-5.51466e-10
2.38858e-08
1.62194e-08
-2.04582e-09
2.38858e-08
1.41093e-08
-3.62093e-09
2.38859e-08
1.54288e-08
-5.17178e-09
2.38858e-08
1.82024e-08
-5.53147e-09
2.38853e-08
2.1646e-08
-4.03411e-09
2.38857e-08
2.29152e-08
-1.9614e-09
2.38856e-08
2.48649e-08
-5.60257e-10
2.38856e-08
2.39689e-08
-3.07994e-10
2.38856e-08
1.90472e-08
-1.31435e-09
2.38856e-08
1.27429e-08
-3.04274e-09
2.38856e-08
6.56294e-09
-3.68059e-09
2.38856e-08
6.0059e-11
-3.31594e-09
2.38856e-08
-6.29622e-09
-2.55769e-09
2.38856e-08
-1.1974e-08
-1.49801e-09
2.38856e-08
-1.79509e-08
-9.20468e-10
2.38857e-08
-2.3464e-08
-9.16335e-10
2.38857e-08
-2.85527e-08
-2.26594e-09
2.38857e-08
-3.28832e-08
-3.86253e-09
2.38857e-08
-3.36968e-08
-5.14231e-09
2.38857e-08
-3.04325e-08
-5.39794e-09
2.38857e-08
-2.63553e-08
-4.13633e-09
2.38852e-08
-2.03247e-08
-2.5437e-09
2.38855e-08
-1.30993e-08
-1.86012e-09
2.38855e-08
-4.85173e-09
-2.44503e-09
2.38856e-08
-1.25816e-09
-3.79928e-09
2.38855e-08
-7.39005e-10
-5.13495e-09
2.38855e-08
-5.63099e-09
-6.32046e-09
2.38856e-08
-1.17782e-08
-5.54315e-09
-2.39463e-09
-4.67705e-09
1.80901e-08
3.09513e-08
2.93868e-09
1.80902e-08
1.80658e-08
1.98386e-09
1.80903e-08
1.81972e-08
3.78862e-09
1.80905e-08
1.62192e-08
3.94359e-09
1.80907e-08
1.41096e-08
2.15365e-09
1.80909e-08
1.54286e-08
-1.37473e-10
1.8091e-08
1.82029e-08
-8.84694e-11
1.80904e-08
2.16454e-08
1.16483e-09
1.80909e-08
2.29168e-08
2.6412e-09
1.80909e-08
2.48649e-08
4.21109e-09
1.80909e-08
2.39689e-08
5.07895e-09
1.8091e-08
1.90465e-08
4.19599e-09
1.80913e-08
1.27431e-08
2.11351e-09
1.80914e-08
6.5628e-09
1.26021e-09
1.80915e-08
6.00132e-11
1.35551e-09
1.80916e-08
-6.29624e-09
1.86319e-09
1.80917e-08
-1.1974e-08
2.76714e-09
1.80917e-08
-1.79509e-08
3.31378e-09
1.80918e-08
-2.34641e-08
3.09955e-09
1.80918e-08
-2.85525e-08
1.9489e-09
1.80915e-08
-3.28833e-08
4.05956e-10
1.80913e-08
-3.36968e-08
-9.90403e-10
1.80911e-08
-3.04329e-08
-2.79703e-10
1.80909e-08
-2.63535e-08
1.16053e-09
1.80903e-08
-2.03264e-08
2.41734e-09
1.80904e-08
-1.30991e-08
3.51158e-09
1.80905e-08
-4.85178e-09
3.47199e-09
1.80905e-08
-1.25812e-09
1.72625e-09
1.80903e-08
-7.391e-10
-7.17638e-10
1.80902e-08
-5.63036e-09
-2.33772e-09
1.80901e-08
-1.17782e-08
-2.55422e-09
-2.39463e-09
8.46554e-10
6.05274e-09
3.09513e-08
1.44599e-09
6.05272e-09
1.80658e-08
3.96292e-09
6.05264e-09
1.81972e-08
3.38663e-09
6.05255e-09
1.62187e-08
1.73278e-09
6.0525e-09
1.411e-08
-1.06674e-09
6.05255e-09
1.54285e-08
-2.41084e-09
6.05239e-09
1.82034e-08
-1.93568e-09
6.05169e-09
2.16446e-08
-7.54029e-10
6.0517e-09
2.29185e-08
3.90109e-10
6.05157e-09
2.48648e-08
1.98018e-09
6.05159e-09
2.39689e-08
2.75139e-09
6.0516e-09
1.90458e-08
1.34145e-09
6.05166e-09
1.27434e-08
-6.02234e-11
6.05174e-09
6.56265e-09
-9.63031e-10
6.05174e-09
5.99881e-11
-1.10852e-09
6.05182e-09
-6.29622e-09
-5.53146e-10
6.05194e-09
-1.19739e-08
4.46565e-10
6.0521e-09
-1.79508e-08
9.13241e-10
6.05227e-09
-2.3464e-08
1.01112e-09
6.05237e-09
-2.85521e-08
1.29307e-10
6.05233e-09
-3.28834e-08
-2.16887e-09
6.05234e-09
-3.36968e-08
-2.92642e-09
6.05236e-09
-3.04339e-08
-2.02196e-09
6.05247e-09
-2.63511e-08
-7.35127e-10
6.05239e-09
-2.03282e-08
3.15481e-10
6.05256e-09
-1.30988e-08
1.36816e-09
6.05261e-09
-4.85189e-09
1.18396e-09
6.05268e-09
-1.25808e-09
-1.21532e-09
6.05271e-09
-7.39107e-10
-1.811e-09
6.05274e-09
-5.62959e-09
1.27296e-09
6.05275e-09
-1.17782e-08
4.96068e-09
-2.39462e-09
4.82645e-09
3.04628e-09
3.09513e-08
6.16959e-09
3.04721e-09
1.80659e-08
7.22582e-09
3.048e-09
1.81971e-08
7.66784e-09
3.04857e-09
1.62183e-08
6.60223e-09
3.04893e-09
1.41105e-08
4.4973e-09
3.0491e-09
1.54283e-08
2.87004e-09
3.04904e-09
1.82041e-08
2.63168e-09
3.04838e-09
2.16439e-08
3.55485e-09
3.04847e-09
2.292e-08
4.96689e-09
3.04846e-09
2.48648e-08
6.37601e-09
3.04843e-09
2.39689e-08
6.24469e-09
3.04826e-09
1.9045e-08
4.80731e-09
3.04794e-09
1.27436e-08
3.1839e-09
3.04752e-09
6.56234e-09
2.01908e-09
3.04715e-09
6.01213e-11
2.09211e-09
3.04668e-09
-6.29624e-09
2.71582e-09
3.04627e-09
-1.19739e-08
3.85708e-09
3.04598e-09
-1.79505e-08
4.66524e-09
3.04574e-09
-2.34639e-08
5.0692e-09
3.04533e-09
-2.85518e-08
4.40008e-09
3.04454e-09
-3.28835e-08
2.58023e-09
3.04391e-09
-3.36967e-08
1.53384e-09
3.04331e-09
-3.04353e-08
1.95812e-09
3.04302e-09
-2.63486e-08
3.29719e-09
3.04284e-09
-2.03299e-08
4.87838e-09
3.04274e-09
-1.30986e-08
6.17034e-09
3.04278e-09
-4.85199e-09
5.59288e-09
3.04314e-09
-1.25798e-09
3.62554e-09
3.04342e-09
-7.39196e-10
2.32013e-09
3.04392e-09
-5.62881e-09
2.45415e-09
3.04453e-09
-1.17783e-08
4.8472e-09
-2.39458e-09
6.26048e-09
-3.11779e-09
3.09513e-08
7.84702e-09
-3.11934e-09
1.80659e-08
9.45325e-09
-3.1205e-09
1.81973e-08
9.14678e-09
-3.12184e-09
1.62179e-08
7.82494e-09
-3.12314e-09
1.41111e-08
6.21927e-09
-3.12429e-09
1.54281e-08
4.6599e-09
-3.12528e-09
1.82054e-08
3.90499e-09
-3.12634e-09
2.16433e-08
4.53311e-09
-3.12649e-09
2.29212e-08
5.86748e-09
-3.12649e-09
2.48647e-08
6.68436e-09
-3.12629e-09
2.3969e-08
5.92596e-09
-3.12587e-09
1.90444e-08
4.39285e-09
-3.12528e-09
1.27437e-08
2.82619e-09
-3.12464e-09
6.56184e-09
1.91252e-09
-3.12353e-09
6.01213e-11
2.04918e-09
-3.12189e-09
-6.2963e-09
2.66811e-09
-3.11972e-09
-1.19739e-08
3.97563e-09
-3.11723e-09
-1.79503e-08
5.03963e-09
-3.11473e-09
-2.34639e-08
5.57439e-09
-3.11247e-09
-2.85516e-08
5.20611e-09
-3.1108e-09
-3.28836e-08
4.03055e-09
-3.1095e-09
-3.36966e-08
3.01371e-09
-3.10884e-09
-3.04369e-08
2.91771e-09
-3.10849e-09
-2.63462e-08
4.07199e-09
-3.10849e-09
-2.03313e-08
5.71963e-09
-3.10863e-09
-1.30984e-08
6.64083e-09
-3.10894e-09
-4.8523e-09
5.84339e-09
-3.10933e-09
-1.25789e-09
4.55198e-09
-3.11038e-09
-7.39318e-10
3.81937e-09
-3.11185e-09
-5.62821e-09
3.2409e-09
-3.11376e-09
-1.17784e-08
5.37456e-09
-2.39459e-09
1.01341e-08
-9.02596e-09
3.09513e-08
8.67371e-09
-9.02559e-09
1.80657e-08
1.01648e-08
-9.02486e-09
1.81974e-08
9.54643e-09
-9.02389e-09
1.62175e-08
8.31669e-09
-9.02286e-09
1.41116e-08
7.36944e-09
-9.02198e-09
1.54278e-08
6.26539e-09
-9.02127e-09
1.82071e-08
5.38103e-09
-9.02123e-09
2.16429e-08
5.55878e-09
-9.02086e-09
2.2922e-08
6.52028e-09
-9.0206e-09
2.48647e-08
6.64782e-09
-9.02037e-09
2.3969e-08
5.40722e-09
-9.02024e-09
1.90439e-08
4.14803e-09
-9.02014e-09
1.27439e-08
2.65638e-09
-9.02001e-09
6.56169e-09
1.82917e-09
-9.02002e-09
6.01213e-11
1.73836e-09
-9.02025e-09
-6.2964e-09
2.46961e-09
-9.02082e-09
-1.1974e-08
3.96961e-09
-9.02179e-09
-1.79503e-08
5.23265e-09
-9.02301e-09
-2.34641e-08
5.99127e-09
-9.02426e-09
-2.85516e-08
5.92254e-09
-9.0254e-09
-3.28837e-08
5.35902e-09
-9.02618e-09
-3.36965e-08
4.73295e-09
-9.02684e-09
-3.04385e-08
4.33368e-09
-9.0271e-09
-2.63443e-08
5.00039e-09
-9.02742e-09
-2.03324e-08
6.26639e-09
-9.02758e-09
-1.30982e-08
6.51905e-09
-9.02761e-09
-4.85274e-09
5.40399e-09
-9.0273e-09
-1.2578e-09
4.92152e-09
-9.02706e-09
-7.39387e-10
4.79749e-09
-9.02673e-09
-5.62781e-09
4.09141e-09
-9.02651e-09
-1.17785e-08
5.57814e-09
-2.3947e-09
1.23378e-08
-1.54217e-08
3.09513e-08
8.87247e-09
-1.54218e-08
1.80657e-08
9.85274e-09
-1.5422e-08
1.81974e-08
9.50927e-09
-1.54223e-08
1.62173e-08
8.83654e-09
-1.54228e-08
1.41119e-08
8.50309e-09
-1.54233e-08
1.54276e-08
7.87819e-09
-1.54238e-08
1.82086e-08
7.0243e-09
-1.54249e-08
2.16426e-08
6.81443e-09
-1.54252e-08
2.29224e-08
7.28617e-09
-1.54252e-08
2.48647e-08
6.91014e-09
-1.54252e-08
2.3969e-08
5.65562e-09
-1.54251e-08
1.90436e-08
4.49196e-09
-1.54249e-08
1.2744e-08
3.18552e-09
-1.54246e-08
6.56154e-09
2.41666e-09
-1.54242e-08
6.01245e-11
2.31585e-09
-1.54238e-08
-6.29645e-09
2.91366e-09
-1.54234e-08
-1.19741e-08
4.21898e-09
-1.5423e-08
-1.79501e-08
5.62708e-09
-1.54228e-08
-2.34643e-08
6.71296e-09
-1.54227e-08
-2.85516e-08
7.04287e-09
-1.54226e-08
-3.28837e-08
6.90509e-09
-1.54226e-08
-3.36965e-08
6.56682e-09
-1.54225e-08
-3.04398e-08
6.06095e-09
-1.5422e-08
-2.63431e-08
6.22289e-09
-1.54217e-08
-2.03329e-08
6.94193e-09
-1.54218e-08
-1.30979e-08
6.67006e-09
-1.54218e-08
-4.8532e-09
5.64702e-09
-1.54216e-08
-1.25773e-09
5.41437e-09
-1.54216e-08
-7.3939e-10
5.5958e-09
-1.54216e-08
-5.62763e-09
4.7253e-09
-1.54216e-08
-1.17784e-08
5.61091e-09
-2.39469e-09
1.22725e-08
-1.97567e-08
3.09513e-08
9.99531e-09
-1.97567e-08
1.80657e-08
9.36925e-09
-1.97567e-08
1.81974e-08
8.62265e-09
-1.97566e-08
1.62172e-08
8.14071e-09
-1.97565e-08
1.41121e-08
8.09804e-09
-1.97565e-08
1.54274e-08
7.8196e-09
-1.97563e-08
1.82097e-08
7.14259e-09
-1.97566e-08
2.16423e-08
6.77616e-09
-1.97566e-08
2.29227e-08
6.74788e-09
-1.97566e-08
2.48646e-08
6.05046e-09
-1.97566e-08
2.3969e-08
4.96434e-09
-1.97566e-08
1.90435e-08
3.85567e-09
-1.97566e-08
1.2744e-08
2.8227e-09
-1.97566e-08
6.56145e-09
2.11044e-09
-1.97566e-08
6.01424e-11
2.11038e-09
-1.97566e-08
-6.29647e-09
2.9232e-09
-1.97567e-08
-1.19742e-08
4.24498e-09
-1.97568e-08
-1.795e-08
5.47878e-09
-1.97569e-08
-2.34646e-08
6.53e-09
-1.97569e-08
-2.85516e-08
6.90485e-09
-1.97569e-08
-3.28836e-08
6.9438e-09
-1.97569e-08
-3.36965e-08
6.75721e-09
-1.97569e-08
-3.04408e-08
6.31812e-09
-1.97569e-08
-2.63423e-08
6.17154e-09
-1.9757e-08
-2.03335e-08
6.33536e-09
-1.9757e-08
-1.30976e-08
5.72821e-09
-1.9757e-08
-4.85361e-09
4.9487e-09
-1.97569e-08
-1.25765e-09
4.79063e-09
-1.97568e-08
-7.39394e-10
5.21618e-09
-1.97568e-08
-5.6276e-09
4.27096e-09
-1.97568e-08
-1.17784e-08
5.17784e-09
-2.39463e-09
1.13734e-08
-1.1127e-08
3.09513e-08
1.23242e-08
-1.1127e-08
1.80657e-08
1.03213e-08
-1.11271e-08
1.81974e-08
8.7048e-09
-1.11271e-08
1.62171e-08
7.68946e-09
-1.11271e-08
1.41121e-08
7.28407e-09
-1.11272e-08
1.54272e-08
7.01045e-09
-1.11271e-08
1.82104e-08
6.40696e-09
-1.11273e-08
2.16423e-08
5.99382e-09
-1.11273e-08
2.29229e-08
5.65902e-09
-1.11272e-08
2.48646e-08
4.79031e-09
-1.11271e-08
2.39689e-08
3.92359e-09
-1.11271e-08
1.90433e-08
2.91421e-09
-1.11271e-08
1.2744e-08
1.92878e-09
-1.11271e-08
6.56144e-09
1.62824e-09
-1.1127e-08
6.02864e-11
2.08391e-09
-1.1127e-08
-6.29631e-09
3.40721e-09
-1.1127e-08
-1.1974e-08
4.7123e-09
-1.11269e-08
-1.79495e-08
5.61828e-09
-1.11269e-08
-2.34643e-08
6.43468e-09
-1.11269e-08
-2.85512e-08
6.65765e-09
-1.11269e-08
-3.28834e-08
6.46328e-09
-1.11268e-08
-3.36961e-08
6.1499e-09
-1.11269e-08
-3.04411e-08
5.68989e-09
-1.11268e-08
-2.63417e-08
5.4348e-09
-1.11268e-08
-2.03341e-08
5.24744e-09
-1.11268e-08
-1.30974e-08
4.5331e-09
-1.11268e-08
-4.85407e-09
4.01829e-09
-1.11269e-08
-1.25765e-09
3.89631e-09
-1.11269e-08
-7.39449e-10
4.29441e-09
-1.11269e-08
-5.62761e-09
4.17977e-09
-1.1127e-08
-1.17785e-08
6.112e-09
-2.39465e-09
1.29903e-08
-1.41019e-08
3.09513e-08
1.54274e-08
-1.41016e-08
1.80657e-08
1.233e-08
-1.41013e-08
1.81974e-08
1.00377e-08
-1.41011e-08
1.6217e-08
8.31519e-09
-1.4101e-08
1.41121e-08
7.16467e-09
-1.4101e-08
1.54273e-08
6.37235e-09
-1.4101e-08
1.82107e-08
5.56355e-09
-1.4101e-08
2.16423e-08
5.02817e-09
-1.41011e-08
2.29229e-08
4.60523e-09
-1.41012e-08
2.48645e-08
3.85902e-09
-1.41015e-08
2.39688e-08
3.18508e-09
-1.41019e-08
1.90434e-08
2.65114e-09
-1.41023e-08
1.2744e-08
2.28067e-09
-1.4103e-08
6.56148e-09
2.3978e-09
-1.41036e-08
6.04697e-11
3.13934e-09
-1.41043e-08
-6.29625e-09
4.24632e-09
-1.41048e-08
-1.19741e-08
5.39081e-09
-1.41052e-08
-1.79495e-08
6.17549e-09
-1.41055e-08
-2.34647e-08
6.61237e-09
-1.41056e-08
-2.85514e-08
6.63287e-09
-1.41057e-08
-3.28837e-08
6.18936e-09
-1.41057e-08
-3.36964e-08
5.608e-09
-1.41058e-08
-3.04416e-08
4.87706e-09
-1.41056e-08
-2.63413e-08
4.48985e-09
-1.41053e-08
-2.03344e-08
4.25612e-09
-1.41049e-08
-1.30971e-08
3.75601e-09
-1.41044e-08
-4.85441e-09
3.48341e-09
-1.41038e-08
-1.25764e-09
3.86405e-09
-1.41033e-08
-7.39474e-10
4.97728e-09
-1.41028e-08
-5.62755e-09
5.95307e-09
-1.41024e-08
-1.17783e-08
8.58506e-09
-2.39475e-09
1.53258e-08
-2.97153e-09
3.09508e-08
1.67345e-08
-2.97158e-09
1.80654e-08
1.3518e-08
-2.97163e-09
1.81971e-08
1.15328e-08
-2.97166e-09
1.62168e-08
9.54167e-09
-2.97166e-09
1.41119e-08
7.70236e-09
-2.97165e-09
1.54271e-08
6.1918e-09
-2.97164e-09
1.82107e-08
4.8989e-09
-2.97162e-09
2.16423e-08
4.03319e-09
-2.97158e-09
2.2923e-08
3.58634e-09
-2.9715e-09
2.48648e-08
3.07528e-09
-2.97143e-09
2.39691e-08
2.59015e-09
-2.97133e-09
1.90438e-08
2.65231e-09
-2.9713e-09
1.27441e-08
2.89802e-09
-2.97121e-09
6.56187e-09
3.44295e-09
-2.97112e-09
6.06401e-11
4.43054e-09
-2.97104e-09
-6.29607e-09
5.59093e-09
-2.97098e-09
-1.1974e-08
6.82253e-09
-2.97094e-09
-1.79493e-08
7.72085e-09
-2.97092e-09
-2.34648e-08
8.05547e-09
-2.97092e-09
-2.85513e-08
7.7643e-09
-2.97093e-09
-3.28836e-08
6.80689e-09
-2.97095e-09
-3.36964e-08
5.57705e-09
-2.97099e-09
-3.04416e-08