/*--------------------------------*- C++ -*----------------------------------*\
| =========                 |                                                 |
| \\      /  F ield         | OpenFOAM: The Open Source CFD Toolbox           |
|  \\    /   O peration     | Version:  v2006                                 |
|   \\  /    A nd           | Website:  www.openfoam.com                      |
|    \\/     M anipulation  |                                                 |
\*---------------------------------------------------------------------------*/
FoamFile
{
    version     2.0;
    format      ascii;
    class       volScalarField;
    location    "1360";
    object      Q;
}
// * * * * * * * * * * * * * * * * * * * * * * * * * * * * * * * * * * * * * //

dimensions      [0 0 -2 0 0 0 0];


internalField   nonuniform List<scalar> 
32768
(
0
-1.8421e-14
5.37209e-19
5.45913e-14
7.82598e-14
1.23861e-13
1.70578e-13
8.86657e-14
5.00329e-14
-2.51218e-15
-2.68171e-14
-7.38367e-14
-2.63045e-14
2.86226e-14
6.71023e-14
4.48175e-14
6.16644e-14
3.94101e-14
-6.59798e-15
-5.73927e-14
-1.45581e-14
-1.009e-18
-8.53876e-14
-4.16379e-14
-1.6271e-14
5.55431e-16
-1.25507e-17
-5.45342e-15
3.97899e-18
1.05955e-13
-3.18175e-18
-1.80138e-14
-9.8553e-13
9.72237e-13
1.46151e-13
6.02724e-13
4.63219e-13
-2.51742e-13
-8.39621e-13
-8.30725e-13
-7.77942e-13
-8.00732e-14
4.59544e-13
1.13277e-12
1.26759e-12
1.21817e-12
1.11218e-12
9.42331e-13
8.88391e-13
8.72476e-13
7.72394e-13
7.18184e-13
3.3556e-13
-6.85152e-14
-1.10424e-12
-1.41263e-12
-1.57767e-12
-1.31063e-12
-7.02931e-13
3.60097e-13
9.0487e-13
1.8243e-12
6.2044e-13
-2.86119e-12
9.70953e-14
-3.07839e-13
7.03348e-14
-3.13117e-14
1.66943e-13
3.72156e-13
4.30354e-13
2.11346e-13
8.41883e-14
-5.86455e-14
-2.61898e-13
-5.06551e-13
-4.89512e-13
-4.23584e-13
-4.20104e-13
-4.0311e-13
-4.28479e-13
-4.69815e-13
-4.63185e-13
-4.71035e-13
-2.20279e-13
2.12021e-15
2.02864e-13
3.88078e-13
4.91339e-13
4.95881e-13
3.30728e-13
-4.04517e-14
-1.37955e-13
-5.14167e-13
-7.19678e-14
1.20327e-12
5.30327e-18
-4.87664e-15
1.03747e-17
2.12569e-14
7.41419e-15
7.43423e-14
7.38177e-14
-5.92853e-15
-1.79675e-17
-1.84908e-15
9.27496e-16
2.96826e-14
1.92982e-14
-1.85744e-14
-6.01167e-14
-1.3573e-13
-1.55955e-13
-1.12267e-13
-7.97634e-14
-5.00651e-14
-1.24198e-14
0
-4.02874e-14
3.0078e-15
9.33287e-15
1.87876e-19
1.36419e-15
-6.68973e-16
6.28186e-20
-1.35117e-14
-6.0611e-18
-1.16492e-14
1.7632e-13
1.47968e-12
3.31734e-13
3.62883e-13
5.62741e-14
-3.32757e-13
-4.55226e-13
-2.29633e-13
-3.0075e-13
-9.20222e-14
1.40093e-13
6.7485e-13
8.19621e-13
9.1202e-13
1.002e-12
1.00502e-12
1.00243e-12
9.59547e-13
8.18116e-13
6.72031e-13
1.97735e-13
-7.77104e-14
-5.37695e-13
-6.60597e-13
-8.69588e-13
-1.13314e-12
-9.3638e-13
-3.5198e-13
-2.51831e-13
5.94828e-13
-4.11226e-13
-2.81386e-12
-5.9127e-14
5.6044e-14
-4.76502e-14
-1.775e-14
-7.46122e-14
-9.43639e-14
-9.15489e-14
-6.35557e-14
-1.09034e-13
-4.5905e-15
2.03264e-14
8.43118e-14
1.29352e-13
1.71281e-13
2.07502e-13
2.23336e-13
2.39485e-13
2.43317e-13
2.26223e-13
1.96029e-13
7.17498e-14
5.49815e-15
-5.59498e-14
-9.5886e-14
-1.23348e-13
-1.63438e-13
-1.12538e-13
6.10918e-15
4.41184e-14
2.14341e-13
5.02044e-14
-4.22272e-13
6.60704e-19
1.10114e-14
2.00712e-18
-1.71413e-14
-4.31064e-14
-5.07969e-14
-4.61504e-14
-2.98286e-14
-6.1623e-14
-9.10903e-15
-2.35453e-14
-2.75468e-14
-8.70648e-15
1.70646e-18
7.83504e-15
2.62143e-14
3.96121e-14
4.85769e-14
5.08245e-14
4.79123e-14
1.78786e-14
1.22608e-18
2.78331e-14
1.70829e-14
2.17061e-14
2.58406e-15
2.94536e-15
-2.44607e-15
1.96379e-20
-5.84739e-15
4.42651e-19
1.23725e-14
-1.87029e-14
2.35062e-13
-3.62905e-14
8.71354e-14
2.15834e-14
-1.04945e-13
-1.61291e-13
-9.29798e-14
-1.19031e-13
7.01838e-16
8.17241e-14
2.62864e-13
2.86954e-13
2.61931e-13
2.29546e-13
1.91789e-13
1.77029e-13
1.77822e-13
1.77515e-13
1.77027e-13
6.31186e-14
4.49651e-15
-1.29992e-13
-1.96881e-13
-2.61477e-13
-3.23014e-13
-2.38636e-13
-1.84856e-14
3.22621e-14
2.22583e-13
2.32102e-14
-7.89453e-13
3.12468e-14
3.71441e-13
2.34365e-14
1.15078e-13
1.71499e-14
-1.02467e-13
-1.80552e-13
-1.12254e-13
-1.27725e-13
-1.75029e-14
6.3293e-14
2.41826e-13
2.75645e-13
2.68534e-13
2.52466e-13
2.20604e-13
2.03567e-13
1.95463e-13
1.91176e-13
2.02816e-13
6.14736e-14
-7.95763e-15
-1.40737e-13
-2.07995e-13
-2.76081e-13
-3.38944e-13
-2.6183e-13
-5.47277e-14
-1.65551e-14
1.78837e-13
-2.04698e-14
-8.14428e-13
-4.5458e-18
3.2305e-14
-3.61052e-19
1.67505e-18
-2.16807e-14
-3.91048e-14
-6.31469e-14
-4.24094e-14
-4.27515e-14
-4.94428e-15
-8.12286e-15
-5.75212e-15
8.39983e-18
-2.55508e-15
-1.60196e-14
-3.40193e-14
-4.43349e-14
-3.47494e-14
0
1.36821e-14
2.07723e-14
1.99264e-18
3.92607e-14
2.22644e-14
1.43479e-14
1.51171e-15
1.42374e-15
-7.76308e-16
8.36389e-19
-1.38525e-14
2.73202e-18
1.34051e-14
2.07935e-14
-4.86523e-14
1.01085e-15
-4.12961e-14
-3.44022e-14
-1.34565e-14
-1.95012e-14
1.38687e-14
2.00805e-14
2.82409e-16
-1.83631e-14
-6.82639e-14
-7.64284e-14
-7.41788e-14
-8.03147e-14
-8.95305e-14
-9.42914e-14
-8.2055e-14
-6.74662e-14
-5.11675e-14
-1.75363e-14
-1.37835e-14
6.12786e-14
6.58843e-14
8.15903e-14
9.20543e-14
7.3426e-14
1.23055e-14
-2.60568e-15
-7.60701e-14
5.73719e-15
2.35087e-13
2.20005e-18
-1.30017e-13
3.30468e-15
-4.18561e-14
-1.12465e-16
5.30422e-14
7.0022e-14
3.49803e-14
1.20054e-13
1.77716e-14
1.73751e-15
-7.22371e-14
-1.20131e-13
-1.4262e-13
-1.55845e-13
-1.58701e-13
-1.63911e-13
-1.61558e-13
-1.54547e-13
-1.38707e-13
-5.03246e-14
-5.98126e-15
6.56369e-14
1.07719e-13
1.27308e-13
1.61658e-13
1.23911e-13
2.25787e-14
-3.78966e-15
-1.27548e-13
1.99252e-18
3.99877e-13
-9.4827e-16
-1.1454e-14
-8.59054e-16
-6.16127e-15
-5.64676e-15
-1.18092e-14
1.4969e-15
3.00616e-14
6.75709e-14
1.64198e-14
3.84657e-14
2.55575e-14
-7.39084e-15
-2.63231e-14
-2.99436e-14
-2.54347e-14
-2.29537e-14
-1.70531e-14
-1.63262e-14
-1.21388e-14
-5.62368e-16
1.48782e-15
9.72783e-15
-3.49401e-16
2.49374e-15
2.04246e-14
1.55119e-14
5.61923e-15
1.12792e-15
-2.17604e-14
-3.3587e-16
5.72609e-14
-4.92094e-15
3.32208e-14
6.33715e-18
4.23749e-15
-2.34323e-14
-4.73299e-14
-1.14144e-14
-4.65326e-15
2.07584e-14
7.01415e-15
2.76884e-14
2.67162e-14
9.17874e-17
-6.00835e-15
-4.79019e-15
7.78813e-15
2.33515e-14
3.15156e-14
3.40147e-14
5.10143e-14
3.20323e-14
3.49201e-15
1.09362e-14
-7.02458e-16
-5.03826e-15
6.44786e-15
6.35135e-15
5.17381e-15
4.07838e-15
-1.15598e-14
-1.17549e-15
1.6449e-14
-3.626e-14
-8.60969e-14
2.01316e-14
5.04165e-14
1.5686e-13
9.18452e-14
7.40234e-14
1.2413e-13
1.67598e-13
1.43824e-14
2.33914e-14
-1.93885e-15
-1.2496e-13
-1.58607e-13
-1.7869e-13
-2.27944e-13
-2.71782e-13
-2.08811e-13
-2.23764e-13
-1.82876e-13
-5.57767e-14
4.40033e-15
8.75354e-14
4.19266e-14
8.6074e-14
1.7986e-13
1.49135e-13
5.1719e-14
2.26534e-14
-1.79047e-13
-1.54977e-14
3.99218e-13
0
-9.65186e-13
-2.85981e-15
-3.1803e-13
3.68967e-14
4.11067e-13
5.87382e-13
3.03772e-13
2.99751e-13
6.78532e-15
-2.78855e-13
-8.03701e-13
-9.27791e-13
-9.95151e-13
-1.03671e-12
-9.975e-13
-9.76329e-13
-8.93953e-13
-8.45052e-13
-7.76287e-13
-2.28378e-13
6.34797e-15
4.91558e-13
7.24747e-13
9.83089e-13
1.20389e-12
9.21786e-13
2.03267e-13
3.7614e-14
-9.24343e-13
-2.95058e-14
2.89e-12
-3.36042e-20
-6.13808e-13
-9.08977e-15
-2.01498e-13
-2.71704e-15
2.1456e-13
3.91738e-13
2.356e-13
2.5656e-13
3.16043e-14
-1.75838e-13
-5.90048e-13
-6.57836e-13
-6.69625e-13
-6.7419e-13
-6.45165e-13
-6.36719e-13
-6.40593e-13
-6.18763e-13
-5.77197e-13
-1.99141e-13
3.99426e-18
3.54961e-13
5.17243e-13
6.81899e-13
8.13691e-13
6.09084e-13
1.01009e-13
-1.13384e-17
-6.04088e-13
8.09642e-18
1.96763e-12
-2.88584e-15
-4.65231e-13
1.85603e-15
-9.91271e-14
1.52298e-13
3.53348e-13
4.11022e-13
2.43105e-13
3.0114e-13
1.37302e-14
-1.36142e-13
-3.91788e-13
-4.7567e-13
-5.20809e-13
-5.54585e-13
-5.64309e-13
-5.65035e-13
-5.0915e-13
-4.84764e-13
-4.64151e-13
-1.98383e-13
1.85163e-15
2.009e-13
3.43405e-13
4.73636e-13
6.15927e-13
4.74527e-13
9.92829e-14
3.49191e-15
-4.70259e-13
-1.13645e-14
1.50885e-12
-2.93878e-15
-6.40558e-13
-6.02769e-15
-2.07949e-13
1.28375e-14
2.93917e-13
4.15303e-13
2.27695e-13
2.30133e-13
1.13752e-14
-2.09058e-13
-6.14929e-13
-6.70835e-13
-6.68747e-13
-6.68253e-13
-6.19264e-13
-6.06487e-13
-6.14828e-13
-5.85216e-13
-5.46146e-13
-2.05558e-13
-4.82885e-15
3.49526e-13
5.25947e-13
6.95986e-13
8.15095e-13
6.14661e-13
1.01948e-13
-5.71027e-15
-5.92371e-13
2.98519e-14
2.00072e-12
-1.95529e-14
-6.8456e-13
-1.66262e-14
-2.27089e-13
-6.65278e-15
2.85557e-13
4.27554e-13
2.39174e-13
2.29403e-13
3.19559e-15
-2.18103e-13
-6.25461e-13
-6.8867e-13
-6.85006e-13
-6.9e-13
-6.3166e-13
-6.07673e-13
-6.1607e-13
-5.9729e-13
-5.63949e-13
-2.11169e-13
-9.22557e-15
3.41661e-13
5.37121e-13
7.13983e-13
8.2608e-13
6.21881e-13
1.06925e-13
-7.49395e-15
-6.01981e-13
5.35119e-14
2.0153e-12
-8.29714e-15
-5.97617e-13
-1.06267e-14
-2.03865e-13
-2.97364e-14
2.16772e-13
3.36639e-13
1.85426e-13
1.50896e-13
-8.34262e-15
-1.98638e-13
-5.56246e-13
-6.05452e-13
-6.04803e-13
-6.02781e-13
-5.54684e-13
-5.25434e-13
-5.19413e-13
-4.97843e-13
-4.41079e-13
-1.48754e-13
-5.90208e-15
3.05472e-13
4.69703e-13
6.20033e-13
7.13909e-13
5.41596e-13
9.63787e-14
-3.60941e-18
-5.18546e-13
3.70328e-14
1.75971e-12
-2.08066e-14
1.48827e-13
-1.27572e-14
3.21028e-14
-2.24105e-14
-8.35115e-14
-1.0814e-13
-6.3799e-14
-1.01317e-13
-3.16274e-14
2.04207e-16
9.24917e-14
1.3047e-13
1.55026e-13
1.61663e-13
1.60142e-13
1.57376e-13
1.67016e-13
1.5516e-13
1.32549e-13
3.70114e-14
-6.49575e-15
-9.10549e-14
-1.1863e-13
-1.53826e-13
-2.04949e-13
-1.55381e-13
-2.47606e-14
-5.39471e-15
1.41163e-13
3.7653e-14
-4.1588e-13
1.26849e-18
2.6736e-14
1.2506e-18
2.03345e-15
-2.21418e-14
-3.76354e-14
-5.08432e-14
-3.90552e-14
-7.06668e-14
-1.07831e-14
-2.22234e-14
-1.91502e-14
-2.76003e-15
-6.11774e-19
-1.57402e-14
-3.17594e-14
-3.30586e-14
-2.07084e-14
-2.12721e-15
7.77149e-15
1.06999e-14
1.91438e-18
2.55109e-14
1.81109e-14
1.92048e-14
1.98658e-15
1.58273e-15
-1.45119e-16
-8.69951e-20
7.42694e-18
-3.67398e-18
8.60811e-15
-8.22309e-14
3.34721e-13
-1.10197e-13
8.804e-14
-1.53014e-14
-2.11048e-13
-3.06578e-13
-1.88361e-13
-2.15096e-13
-5.50874e-14
7.76546e-14
3.70408e-13
4.42466e-13
4.64591e-13
4.72322e-13
4.37575e-13
4.06706e-13
3.79876e-13
3.40918e-13
2.91939e-13
7.27712e-14
-3.60216e-14
-2.69312e-13
-3.57084e-13
-4.74072e-13
-5.70619e-13
-4.17307e-13
-3.27661e-14
5.73391e-14
4.55787e-13
2.5724e-13
-1.20859e-12
-2.41635e-18
2.6884e-14
1.55023e-18
1.51234e-14
-3.89675e-15
-3.04458e-14
-4.97182e-14
-4.16271e-14
-5.4539e-14
-7.04821e-15
-1.72037e-14
-1.22285e-14
3.76995e-16
-5.0581e-15
-2.22122e-14
-3.94706e-14
-5.72388e-14
-7.36749e-14
-6.76677e-14
-3.70583e-14
-6.54681e-15
2.44102e-20
1.86302e-14
1.66141e-14
1.25996e-14
1.0754e-15
1.14985e-15
-1.00199e-15
-1.83411e-19
-1.41922e-14
2.30411e-19
1.41625e-15
-5.0084e-14
-1.74382e-13
-1.66607e-13
-1.95705e-13
-2.15563e-13
-1.76068e-13
-1.48455e-13
-8.82006e-14
-8.65538e-14
-4.22468e-14
-4.48025e-14
-2.95576e-14
2.6377e-14
9.1276e-14
1.34067e-13
1.63482e-13
1.66138e-13
4.32019e-14
4.12979e-15
1.85668e-14
-4.77004e-14
-8.28391e-14
-3.02043e-14
-9.34384e-15
1.07071e-15
-1.86597e-14
6.90629e-15
5.35861e-14
1.25281e-13
2.53236e-13
2.85633e-13
2.09176e-13
0
-4.07925e-14
-2.92479e-19
-8.15351e-14
-1.73863e-13
-1.65167e-13
-1.79759e-13
-1.01453e-13
-1.07681e-13
-1.23138e-14
-3.96206e-14
-7.81992e-14
-3.57301e-14
4.36369e-14
1.29663e-13
2.10339e-13
2.54898e-13
2.65928e-13
2.58457e-13
2.2594e-13
1.01285e-13
3.09026e-18
8.94515e-14
4.44963e-14
2.68639e-14
2.18972e-15
3.10381e-15
-5.59013e-15
9.97667e-19
8.10617e-14
-8.46747e-20
-4.47128e-15
-3.51703e-13
-3.99198e-12
-6.88967e-13
-1.61141e-12
-6.50266e-13
7.1091e-13
1.23668e-12
7.64982e-13
7.29974e-13
-5.10724e-14
-1.12523e-12
-2.94799e-12
-3.02281e-12
-3.02625e-12
-2.96483e-12
-2.58948e-12
-2.42554e-12
-2.46964e-12
-2.44321e-12
-2.20339e-12
-7.02387e-13
-6.18167e-14
1.83589e-12
2.57491e-12
3.34388e-12
3.66046e-12
2.61659e-12
3.06165e-13
-2.973e-17
-1.87834e-12
1.27662e-12
9.7796e-12
0
-3.87712e-14
1.27873e-18
4.94487e-14
9.05008e-14
4.48245e-14
-4.83012e-18
-2.7316e-14
-4.14136e-14
3.2247e-15
5.23002e-14
4.81273e-14
1.89575e-14
-2.24851e-14
-5.86026e-14
-8.12118e-14
-1.54001e-13
-1.06321e-13
-8.76638e-14
-1.66235e-13
-5.33701e-14
0
1.01406e-18
6.23078e-15
1.10778e-14
-8.40922e-16
-4.46201e-15
3.19652e-15
-5.16589e-19
-7.67036e-14
3.70259e-19
-1.10405e-14
8.4362e-19
2.03218e-12
-3.25656e-19
6.99353e-13
1.34247e-13
-7.04151e-13
-1.09638e-12
-5.36693e-13
-4.20942e-13
-5.34428e-14
6.5597e-13
1.91119e-12
2.0846e-12
2.05247e-12
2.02947e-12
1.86757e-12
1.84712e-12
1.90659e-12
1.73361e-12
1.58802e-12
5.55804e-13
6.18981e-14
-1.13251e-12
-1.69248e-12
-2.27196e-12
-2.62557e-12
-2.00754e-12
-3.42656e-13
-1.5627e-14
1.82167e-12
-2.77844e-14
-6.20885e-12
-1.77685e-18
1.43538e-12
1.38484e-13
4.48193e-13
-1.52263e-13
-7.45684e-13
-1.07787e-12
-6.94134e-13
-4.64438e-13
-1.13515e-13
4.34682e-13
1.37817e-12
1.47611e-12
1.49487e-12
1.58274e-12
1.60349e-12
1.66742e-12
1.7315e-12
1.73422e-12
1.63848e-12
6.85492e-13
1.32833e-13
-7.25692e-13
-1.36299e-12
-1.74504e-12
-1.91784e-12
-1.40022e-12
-1.23752e-13
1.5862e-13
1.48697e-12
-3.34953e-14
-4.50189e-12
-2.54601e-13
-5.61091e-14
2.70282e-13
7.15846e-14
-5.78943e-14
2.57438e-14
-2.08759e-13
-3.44039e-13
-3.22904e-13
-1.36547e-13
-2.25202e-14
5.3718e-14
5.45296e-14
5.98457e-14
1.21801e-13
1.91237e-13
2.4417e-13
3.02839e-13
3.54404e-13
2.96601e-13
2.31261e-13
4.73672e-19
-8.41226e-14
-3.18464e-13
-3.18124e-13
-1.59824e-13
4.51506e-14
1.18973e-13
2.57743e-13
2.71469e-13
3.24315e-13
1.5398e-13
-6.10765e-14
1.02635e-13
4.33373e-13
5.90961e-13
3.21208e-14
-3.05357e-13
-8.47257e-13
-8.3811e-13
-7.90805e-13
-4.64597e-13
2.29563e-13
7.68233e-13
9.73213e-13
1.02193e-12
1.03448e-12
9.70279e-13
1.04016e-12
1.11836e-12
1.04732e-12
9.35115e-13
6.06294e-13
-1.7655e-13
-8.9801e-13
-1.25978e-12
-1.3837e-12
-1.28297e-12
-7.64635e-13
-1.55519e-13
2.82861e-14
1.07286e-13
-4.33907e-13
-1.2356e-12
-2.23391e-13
7.62081e-19
1.08859e-13
1.85879e-13
2.42473e-14
2.06566e-13
2.36207e-13
8.90198e-14
-6.19225e-14
-1.55104e-13
-4.85756e-13
-3.73841e-13
-2.72588e-13
-1.54614e-13
-5.12776e-14
-4.73859e-16
7.12963e-18
-2.51035e-15
-5.22181e-14
-1.99991e-13
-3.54053e-13
-2.68706e-13
-2.09547e-13
-8.58024e-14
4.10486e-14
1.08496e-13
1.71853e-13
9.18044e-14
9.24047e-14
2.34553e-13
2.71468e-13
-9.68668e-18
-4.9895e-13
1.92788e-13
-4.55936e-14
-5.05736e-14
1.31438e-14
5.71429e-13
1.14193e-12
9.04407e-13
5.13192e-13
-5.34106e-14
-6.96646e-13
-1.00326e-12
-1.02241e-12
-8.48388e-13
-8.1669e-13
-6.91029e-13
-7.36652e-13
-8.66957e-13
-9.09468e-13
-9.84098e-13
-9.37743e-13
-3.72023e-13
2.64384e-13
7.58663e-13
1.01569e-12
1.0267e-12
5.78229e-13
9.84749e-14
-1.7794e-15
1.37662e-13
7.16298e-13
1.20784e-12
-1.87478e-13
-2.94437e-13
-1.35602e-14
6.06862e-14
1.60801e-15
7.51574e-14
3.96531e-14
-1.34037e-13
-5.47164e-14
-3.98569e-14
9.29393e-14
2.18449e-13
2.60514e-13
1.77762e-13
1.20199e-13
2.65889e-14
-3.96814e-14
-2.45345e-14
-8.50586e-15
6.0555e-15
1.26773e-14
-1.19129e-13
-1.4362e-13
-1.12807e-13
-8.35578e-14
-9.24946e-14
1.24833e-14
7.46585e-14
1.00538e-13
2.68925e-14
-3.24452e-16
3.66912e-13
2.24435e-15
-4.76788e-13
-2.42176e-13
1.80684e-14
1.1675e-15
-9.25611e-14
-3.23899e-13
-4.174e-13
-4.12655e-13
-2.72166e-13
2.55384e-14
2.37707e-13
3.31755e-13
3.35231e-13
2.97541e-13
2.61136e-13
2.86007e-13
3.4729e-13
3.77475e-13
3.51764e-13
2.94718e-13
7.62164e-14
-1.62482e-13
-2.67698e-13
-2.97381e-13
-2.408e-13
-1.31717e-13
8.32222e-14
1.37312e-13
2.2522e-13
2.42852e-13
-3.48959e-13
1.24574e-13
5.88938e-15
-9.12481e-14
-9.17292e-14
-8.95901e-15
-7.37584e-14
-9.11829e-14
-1.12554e-13
-1.57791e-13
-1.66019e-13
-1.36467e-13
-1.2553e-13
-9.76705e-14
-6.50953e-14
-1.30663e-14
4.52582e-14
1.0157e-13
1.49819e-13
1.70115e-13
1.78953e-13
1.71788e-13
7.28707e-14
2.01851e-14
3.05239e-14
6.68836e-14
5.85437e-14
2.23033e-14
1.86974e-14
2.0619e-14
1.58659e-13
1.90895e-13
-8.75361e-14
1.44946e-13
-1.02223e-14
1.73956e-14
3.21425e-15
-1.23346e-14
-1.17335e-13
-2.17378e-13
-2.04231e-13
-2.02358e-13
-1.52038e-13
-4.39273e-14
6.1467e-14
1.08041e-13
1.60622e-13
1.49854e-13
1.39159e-13
1.61581e-13
1.93256e-13
2.05728e-13
2.13923e-13
1.61971e-13
8.80389e-14
2.65899e-15
-5.28435e-14
-6.43951e-14
-8.13363e-14
-6.01248e-14
-1.45416e-14
-2.10182e-14
-1.06209e-13
-3.8945e-13
-6.70882e-13
4.08362e-13
3.35352e-13
4.06238e-13
3.16314e-13
3.15212e-14
-2.17782e-13
-6.03311e-13
-5.7254e-13
-5.09926e-13
-3.3685e-13
7.68912e-14
4.44448e-13
6.07089e-13
6.6767e-13
6.70649e-13
6.21273e-13
6.27367e-13
6.52524e-13
6.1377e-13
5.5041e-13
3.71069e-13
3.83821e-14
-2.56254e-13
-4.48555e-13
-5.63865e-13
-6.27474e-13
-4.84488e-13
-3.04346e-13
-3.43551e-13
-6.71021e-13
-1.42005e-12
-1.45993e-12
4.9029e-13
8.13723e-14
2.89683e-13
2.5675e-13
1.77518e-15
-2.06839e-13
-5.67411e-13
-5.42336e-13
-4.50268e-13
-2.66874e-13
1.39614e-13
4.64507e-13
5.88536e-13
6.0948e-13
5.90173e-13
5.24571e-13
5.18944e-13
5.37968e-13
5.23352e-13
5.29546e-13
3.63503e-13
6.50393e-14
-1.87346e-13
-3.71118e-13
-5.06769e-13
-5.57677e-13
-4.05506e-13
-1.99368e-13
-2.13015e-13
-5.13125e-13
-1.29546e-12
-1.40414e-12
4.78083e-13
2.49177e-13
1.47509e-13
1.26542e-13
-2.08361e-14
-1.93076e-13
-4.3978e-13
-4.05082e-13
-3.06511e-13
-1.95559e-13
4.53892e-14
2.40819e-13
3.27694e-13
3.75678e-13
3.91186e-13
3.68646e-13
3.72116e-13
3.71404e-13
3.42042e-13
3.22375e-13
2.4265e-13
4.31441e-14
-9.76816e-14
-2.06951e-13
-3.06078e-13
-3.34646e-13
-2.39383e-13
-1.24587e-13
-1.60091e-13
-3.24114e-13
-8.26436e-13
-1.0613e-12
6.75389e-14
2.9705e-14
5.42713e-15
-2.14433e-14
-8.07209e-15
-5.23689e-14
-1.14862e-13
-3.98412e-14
-1.88922e-14
1.72145e-14
4.36254e-14
3.21088e-14
3.73674e-14
5.57156e-14
5.38501e-14
4.19185e-14
2.60381e-14
2.39112e-14
2.93569e-14
4.42751e-14
5.79247e-14
4.06175e-14
4.80126e-14
-6.16024e-16
-2.29301e-14
-3.34099e-14
-2.17916e-14
-8.31406e-15
-1.22705e-14
-1.66332e-14
-6.07714e-14
-1.21453e-13
6.08149e-19
-3.47931e-15
-2.32194e-14
6.45059e-15
1.40299e-15
1.61805e-14
9.41967e-15
1.35816e-17
1.38165e-13
1.80433e-13
1.82274e-13
1.41505e-13
8.19878e-14
4.84513e-14
2.14866e-14
6.13285e-16
-1.82785e-14
-3.0108e-14
-4.03126e-14
-4.71291e-14
-4.50111e-14
-3.19115e-14
-2.31732e-14
-7.33432e-18
-6.52687e-14
-6.65623e-14
-2.32854e-14
-5.70782e-15
-1.24075e-14
-1.98869e-14
1.13941e-17
9.72468e-18
8.77728e-14
-6.37889e-14
-8.02764e-14
-8.19565e-14
8.09593e-16
6.50292e-14
1.8692e-13
2.32257e-13
2.37374e-13
2.58476e-13
1.29739e-13
-4.75041e-14
-1.36805e-13
-1.92456e-13
-2.21867e-13
-2.2125e-13
-2.28693e-13
-2.28793e-13
-2.21645e-13
-1.91469e-13
-1.12036e-13
2.34148e-14
1.05235e-13
1.0671e-13
1.46127e-13
1.42437e-13
1.26448e-13
6.76185e-14
8.1034e-14
1.33703e-13
2.68153e-13
3.71207e-13
4.29614e-13
3.9745e-15
-1.19736e-14
-6.51046e-14
-1.86009e-14
-1.30991e-14
1.45513e-13
1.76462e-13
1.86309e-13
1.63446e-13
5.46696e-14
-8.67277e-14
-1.69773e-13
-1.86922e-13
-1.75086e-13
-1.53361e-13
-1.50985e-13
-1.60067e-13
-1.58278e-13
-1.25645e-13
-4.07963e-14
5.76283e-14
1.06229e-13
1.63473e-13
1.67852e-13
1.36965e-13
8.88357e-14
3.67977e-14
3.62945e-14
7.01868e-14
1.22803e-13
2.24517e-13
2.17211e-13
-4.03455e-14
1.29287e-13
7.31691e-14
-3.03911e-14
1.07808e-13
1.9022e-13
5.29097e-13
4.56977e-13
4.08599e-13
1.93948e-13
9.41339e-14
-1.31634e-13
-1.77421e-13
-1.86947e-13
-1.78536e-13
-2.30331e-13
-2.68323e-13
-3.47346e-13
-3.8259e-13
-3.44483e-13
-5.52731e-14
9.92444e-14
-2.75109e-14
2.06912e-14
9.45161e-14
4.05677e-14
-8.88256e-15
-8.69185e-15
-6.67604e-14
-1.18289e-13
1.70977e-14
-2.08761e-13
-5.41435e-14
-1.32832e-13
-1.68453e-13
4.30793e-14
2.58935e-13
5.80342e-13
5.23841e-13
3.91786e-13
2.77863e-13
-1.35127e-13
-2.12146e-13
-3.04082e-13
-3.74553e-13
-4.25019e-13
-4.31743e-13
-4.73529e-13
-4.70415e-13
-4.76121e-13
-4.94841e-13
-3.40284e-13
-9.79445e-14
3.32502e-14
1.79972e-13
3.24829e-13
4.93127e-13
3.36516e-13
1.7134e-13
1.59493e-13
-1.44346e-14
-2.57094e-13
9.92063e-14
-2.5895e-13
-9.24818e-14
-8.08939e-15
-4.27828e-14
8.36356e-14
1.92417e-13
5.76967e-13
5.41372e-13
4.36317e-13
2.72491e-13
-9.17492e-14
-3.66359e-13
-4.59629e-13
-5.36843e-13
-5.55058e-13
-5.49822e-13
-5.83223e-13
-6.23906e-13
-6.10234e-13
-5.6316e-13
-4.00489e-13
-1.67507e-14
1.148e-13
3.08189e-13
4.36264e-13
5.02784e-13
4.30734e-13
2.26726e-13
1.92154e-13
3.01247e-14
8.78199e-13
6.86739e-13
5.48549e-14
-6.08038e-14
4.00298e-14
-1.60324e-14
5.36358e-14
4.05384e-13
7.16408e-13
6.87119e-13
6.00659e-13
2.44264e-13
-1.21152e-13
-2.39061e-13
-3.64174e-13
-4.24464e-13
-4.74918e-13
-4.86931e-13
-5.46439e-13
-5.69146e-13
-5.72914e-13
-5.9096e-13
-6.02239e-13
-2.51666e-13
-9.36786e-15
1.57096e-13
2.80501e-13
4.86904e-13
3.50462e-13
1.52505e-13
1.30677e-13
2.21606e-13
7.25908e-13
5.23942e-13
-1.22243e-13
-6.54945e-14
-1.13894e-13
-1.30784e-13
1.91732e-14
2.91117e-13
6.10376e-13
5.25675e-13
4.13664e-13
1.83678e-13
-1.9351e-13
-4.35816e-13
-5.13819e-13
-5.21545e-13
-5.25078e-13
-4.92929e-13
-5.16117e-13
-5.62496e-13
-5.5545e-13
-5.44803e-13
-4.56898e-13
-1.42329e-13
1.28384e-13
3.31559e-13
4.72922e-13
5.70702e-13
4.03075e-13
1.78178e-13
1.60464e-13
2.61317e-13
7.27616e-13
4.98898e-13
-2.0176e-13
-7.40374e-14
-1.69418e-13
-1.70617e-13
2.13916e-15
2.77274e-13
6.37048e-13
5.58517e-13
4.22713e-13
1.97293e-13
-1.78007e-13
-4.249e-13
-5.04929e-13
-5.26237e-13
-5.27377e-13
-4.91366e-13
-5.14231e-13
-5.64385e-13
-5.70687e-13
-5.738e-13
-4.78273e-13
-1.62987e-13
1.02008e-13
3.32291e-13
5.02807e-13
5.80416e-13
4.00605e-13
1.77255e-13
1.64467e-13
2.81518e-13
8.28885e-13
9.41895e-13
-1.71846e-13
-6.09275e-14
-1.73232e-13
-1.60427e-13
7.3922e-16
1.89521e-13
4.6226e-13
4.02777e-13
2.68693e-13
1.15226e-13
-1.49161e-13
-3.45915e-13
-3.95882e-13
-4.07407e-13
-4.06577e-13
-3.85772e-13
-4.05129e-13
-4.37648e-13
-4.33964e-13
-3.89647e-13
-2.86843e-13
-6.80375e-14
1.00895e-13
2.80889e-13
4.31046e-13
4.76602e-13
3.19318e-13
1.46396e-13
1.42437e-13
2.59902e-13
6.68273e-13
7.39751e-13
1.60838e-13
1.9749e-15
-2.87562e-14
-3.53971e-14
-3.71116e-15
-2.62941e-14
-3.26394e-14
-4.64441e-14
-8.81893e-14
-1.17434e-13
-9.4806e-14
-7.25295e-14
-4.46205e-14
-1.99968e-14
-4.10979e-16
2.03168e-16
-5.84635e-15
1.92428e-16
8.48383e-15
1.53503e-14
0
1.70478e-14
1.72942e-14
3.12762e-14
7.31386e-14
7.45615e-14
2.93182e-14
1.42077e-14
1.24525e-14
1.54476e-14
-2.28217e-14
-4.91137e-14
2.00546e-13
-8.86537e-14
-8.49951e-15
-1.48423e-14
-2.32216e-14
-9.14607e-14
-1.68662e-13
-1.707e-13
-1.92155e-13
-1.95463e-13
-1.3588e-13
-6.69051e-14
4.71693e-15
6.10144e-14
1.28414e-13
1.37043e-13
1.12638e-13
1.00567e-13
8.65363e-14
6.90747e-14
6.05696e-14
2.54349e-14
1.69479e-14
1.69886e-14
-1.0462e-15
-3.52579e-14
-3.87908e-14
-1.90048e-14
-1.01145e-14
-3.94286e-14
-1.28261e-13
-1.90486e-13
2.05509e-13
1.3459e-14
1.01093e-13
5.71495e-14
1.27229e-15
-2.48041e-14
-7.97229e-14
-1.10906e-13
-1.12338e-13
-9.50122e-14
-7.29852e-14
-1.20428e-14
3.44228e-14
4.60342e-14
3.17504e-14
9.0511e-16
-2.49911e-14
-4.62241e-14
-4.94089e-14
-4.4097e-14
-1.72045e-14
2.34232e-14
6.06708e-14
8.64185e-14
8.08907e-14
4.7719e-14
1.64834e-14
1.79438e-16
-1.0903e-14
-1.40441e-13
-4.1488e-13
-1.53243e-13
8.84025e-14
-2.71217e-13
-8.15656e-14
-1.18082e-13
-1.99461e-13
-2.67003e-13
-3.77059e-13
-3.34307e-13
-2.68055e-13
-2.04634e-13
-4.4395e-14
1.32834e-13
2.30686e-13
3.01101e-13
3.33473e-13
3.17614e-13
2.85062e-13
2.14401e-13
1.23433e-13
5.80389e-14
-3.62401e-14
-1.17346e-13
-1.55125e-13
-1.39056e-13
-1.62817e-13
-1.83311e-13
-7.91186e-14
8.14263e-14
1.56493e-13
1.41144e-13
-3.26908e-14
-2.38945e-13
8.85178e-14
-4.02385e-13
-3.93595e-13
-4.46941e-13
-2.81214e-13
-2.69082e-13
-2.28107e-13
-1.71458e-13
-1.2192e-13
-1.52179e-13
-1.78695e-13
-1.44659e-13
-8.46397e-14
2.25572e-15
6.92966e-14
1.28757e-13
1.60256e-13
3.27237e-15
-4.36088e-14
-6.45097e-14
-7.27506e-14
-7.62589e-14
-1.76605e-14
7.48071e-14
9.4976e-14
6.62725e-14
9.0306e-14
1.68111e-13
3.18658e-13
6.15578e-13
7.3724e-13
4.69984e-13
-3.10112e-13
-1.09977e-12
-1.21674e-12
-1.08059e-12
-3.82821e-13
-1.32122e-13
1.80777e-13
2.30326e-13
2.35954e-13
-4.07589e-14
-5.50033e-13
-8.47084e-13
-8.43732e-13
-7.04834e-13
-5.41705e-13
-3.43566e-13
-2.72947e-13
-3.54561e-13
-4.45465e-13
-4.58298e-13
-2.27706e-13
6.1619e-14
3.99022e-13
6.88285e-13
8.40348e-13
7.27181e-13
4.37341e-13
2.88532e-13
6.25921e-13
1.57567e-12
2.81494e-12
2.38085e-12
-1.21828e-12
-5.17784e-13
-8.14794e-13
-7.33806e-13
-1.5251e-13
6.3332e-14
3.85288e-13
3.99347e-13
3.59516e-13
1.06959e-13
-4.54139e-13
-8.79121e-13
-8.80723e-13
-8.59808e-13
-8.53769e-13
-7.26769e-13
-6.88433e-13
-7.40184e-13
-7.92346e-13
-7.15645e-13
-2.92749e-13
1.92863e-13
6.98514e-13
1.01174e-12
1.14044e-12
1.01909e-12
5.8454e-13
2.42917e-13
2.95663e-13
1.0279e-12
2.44988e-12
2.26481e-12
2.4692e-13
4.00394e-13
8.41951e-13
1.07947e-12
5.14425e-13
1.23297e-13
-6.19487e-13
-8.23383e-13
-8.41307e-13
-3.57074e-13
5.41121e-13
7.83489e-13
8.33978e-13
7.78172e-13
6.8992e-13
5.76187e-13
4.93996e-13
6.0784e-13
6.32714e-13
6.01064e-13
4.29359e-13
1.92674e-13
-3.24574e-13
-6.38455e-13
-1.04024e-12
-1.02255e-12
-5.39315e-13
-1.92203e-13
-2.94047e-13
-1.39534e-12
-2.47704e-12
-1.25694e-12
3.70665e-13
-8.47888e-13
2.70292e-13
9.35441e-13
8.18285e-13
4.19491e-13
-4.28572e-13
-7.11765e-13
-7.23734e-13
-6.16912e-13
1.97368e-13
7.11916e-13
7.71153e-13
6.32466e-13
5.14912e-13
3.84236e-13
5.48893e-13
8.35118e-13
9.64248e-13
1.39446e-12
1.34094e-12
9.99186e-13
3.15597e-13
-7.62675e-13
-1.51122e-12
-1.8133e-12
-1.23799e-12
-3.99587e-13
-5.54499e-13
-6.2128e-13
-1.11747e-12
-6.55816e-13
3.78903e-14
1.81805e-14
-3.9968e-13
-3.80473e-13
4.5276e-14
-4.00404e-13
-6.0335e-13
-3.9461e-13
-2.53119e-14
2.24553e-13
2.55258e-13
2.07574e-13
7.09208e-14
-1.79833e-14
-1.89088e-14
6.35104e-14
2.15163e-13
3.99931e-13
5.94367e-13
7.78406e-13
8.68191e-13
6.52661e-13
3.45894e-13
-9.42535e-14
-3.52508e-13
-4.12927e-13
-1.93932e-13
7.1129e-15
7.81219e-14
3.23927e-13
3.72031e-13
1.08806e-12
-6.37862e-13
-3.6671e-14
-3.79261e-13
-2.06776e-13
-1.72907e-14
-3.83935e-14
-8.48982e-14
-1.29076e-14
-2.20282e-14
7.94528e-14
3.34707e-14
3.60301e-14
4.34644e-15
-2.20025e-14
1.02154e-14
9.87595e-14
2.17508e-13
3.39515e-13
4.18944e-13
4.26342e-13
4.61735e-13
3.39996e-15
-3.72469e-14
-1.20871e-13
-1.42324e-13
-2.26519e-13
-1.15791e-13
-5.47362e-14
-4.94937e-14
1.43736e-13
5.07878e-13
6.09933e-13
3.15362e-13
3.71403e-13
-9.26906e-14
2.66344e-13
1.74086e-13
2.37052e-13
4.27456e-13
5.00786e-13
3.85982e-13
1.06692e-13
8.76334e-15
-2.45708e-13
-1.50191e-13
-8.28423e-14
7.32691e-14
2.94996e-13
3.10279e-13
3.94366e-13
3.7968e-13
1.85011e-13
8.5395e-14
-2.71167e-14
-5.41094e-14
-1.39314e-13
-1.3612e-13
-1.55455e-13
-4.08266e-13
-3.98636e-13
-8.62656e-13
-1.10198e-12
-7.90753e-13
-8.00624e-13
1.52845e-12
6.87262e-14
-2.14721e-13
-1.9299e-13
-1.91764e-13
3.02313e-13
8.62597e-13
9.50714e-13
6.55889e-13
-9.7196e-14
-9.56853e-13
-1.01441e-12
-8.63052e-13
-5.2829e-13
-1.72218e-13
6.07436e-14
1.03892e-13
1.17495e-13
9.97483e-14
-1.40826e-13
-3.91858e-13
-8.28623e-14
4.91652e-13
7.49958e-13
7.66305e-13
1.74483e-13
-6.46225e-14
-5.50036e-13
-1.20262e-12
-1.38216e-12
-1.00434e-12
-1.85163e-13
4.00833e-13
3.82658e-13
2.61273e-13
-8.73312e-14
-4.36685e-14
3.23964e-13
6.4654e-13
5.76422e-13
2.12177e-13
-3.87223e-13
-8.32302e-13
-9.03556e-13
-7.90252e-13
-4.33741e-13
-3.58299e-13
-1.06963e-13
-4.94759e-14
-1.00837e-13
-1.33289e-13
-1.60847e-13
-2.68189e-13
-1.22172e-13
3.88518e-13
7.19376e-13
7.62055e-13
6.04373e-13
2.30238e-13
-1.81566e-13
-3.44784e-13
-2.29261e-13
4.52823e-15
4.64693e-13
5.93317e-14
4.16944e-13
1.23225e-13
3.68247e-13
1.58812e-13
-5.21416e-14
-1.9074e-13
-2.43182e-13
-2.04535e-13
-8.19132e-14
1.85258e-13
4.78663e-13
6.25711e-13
6.12875e-13
6.06397e-13
6.04848e-13
5.72793e-13
5.16309e-13
4.20981e-13
2.92553e-13
1.19559e-13
-2.07418e-13
-4.3378e-13
-5.07157e-13
-5.47091e-13
-5.70297e-13
-3.37988e-13
-1.63312e-13
-2.5281e-13
-5.32026e-13
-6.65562e-13
-7.67013e-13
-1.30863e-14
9.80446e-14
-6.0099e-15
1.68592e-13
8.74182e-14
-5.60098e-14
-1.507e-13
-2.12595e-13
-2.54574e-13
-2.23787e-13
-5.17679e-14
5.70188e-14
1.3127e-13
1.70875e-13
1.34481e-13
1.25651e-13
1.49869e-13
1.98821e-13
2.01819e-13
1.62999e-13
8.88489e-14
-5.03335e-14
-2.06098e-13
-2.54418e-13
-2.23817e-13
-1.64403e-13
-6.63978e-14
7.78024e-14
3.67334e-14
-4.99698e-14
-9.27786e-14
-3.77307e-13
6.07151e-14
1.55489e-13
5.74545e-14
8.80276e-14
1.69322e-14
-7.294e-14
-1.16556e-13
-1.3539e-13
-1.79167e-13
-1.79984e-13
-1.22243e-13
-1.122e-13
-1.04764e-13
-1.00859e-13
-7.56131e-14
-3.49223e-14
5.08819e-15
5.61113e-14
8.00757e-14
8.95872e-14
8.33274e-14
8.75192e-15
-9.36635e-14
-1.1173e-13
-7.46358e-14
-5.34731e-14
-9.45289e-15
5.17416e-14
5.99452e-15
-3.47398e-14
-1.09423e-13
-2.04915e-13
-4.71628e-14
8.54818e-14
-2.30963e-14
1.76512e-13
6.08461e-14
-1.15621e-13
-2.14519e-13
-2.2099e-13
-2.16779e-13
-1.25697e-13
4.2067e-14
1.76529e-13
2.20505e-13
2.87503e-13
2.39503e-13
1.72552e-13
1.83049e-13
2.17094e-13
2.081e-13
1.75801e-13
1.01221e-13
-1.00806e-14
-1.80692e-13
-2.86776e-13
-2.9151e-13
-2.53591e-13
-1.07816e-13
2.93769e-14
-4.4628e-14
-2.44042e-13
-3.70674e-13
-4.24716e-13
4.65091e-14
4.25571e-13
1.27334e-13
3.83092e-13
1.81027e-13
-1.10822e-13
-3.06387e-13
-3.20861e-13
-3.04913e-13
-1.67513e-13
1.15255e-13
3.73354e-13
5.07353e-13
5.68438e-13
5.59622e-13
4.85612e-13
4.84322e-13
5.00859e-13
4.25587e-13
2.97287e-13
1.30296e-13
-8.52801e-14
-3.51435e-13
-5.08287e-13
-5.36669e-13
-5.11615e-13
-3.36904e-13
-1.97136e-13
-3.34832e-13
-6.17454e-13
-7.43698e-13
-7.10758e-13
7.51597e-14
3.90187e-13
9.575e-14
3.84196e-13
1.61311e-13
-1.24629e-13
-3.34394e-13
-3.52715e-13
-3.03967e-13
-1.44046e-13
1.69164e-13
4.16137e-13
5.33125e-13
5.65167e-13
5.56078e-13
4.89782e-13
4.95795e-13
5.14928e-13
4.32497e-13
3.01292e-13
1.29236e-13
-9.19903e-14
-3.59329e-13
-5.23289e-13
-5.72728e-13
-5.38948e-13
-3.46519e-13
-1.7193e-13
-3.0087e-13
-5.98589e-13
-7.71318e-13
-7.36596e-13
1.19101e-13
3.67131e-13
4.084e-14
2.02372e-13
5.99631e-14
-1.31763e-13
-2.64918e-13
-2.66992e-13
-2.06813e-13
-1.13496e-13
6.55666e-14
2.04142e-13
2.74997e-13
3.23803e-13
3.46977e-13
3.33013e-13
3.46587e-13
3.29376e-13
2.30653e-13
1.57451e-13