/*--------------------------------*- C++ -*----------------------------------*\
| =========                 |                                                 |
| \\      /  F ield         | OpenFOAM: The Open Source CFD Toolbox           |
|  \\    /   O peration     | Version:  v2006                                 |
|   \\  /    A nd           | Website:  www.openfoam.com                      |
|    \\/     M anipulation  |                                                 |
\*---------------------------------------------------------------------------*/
FoamFile
{
    version     2.0;
    format      ascii;
    class       volVectorField;
    location    "1360";
    object      URel;
}
// * * * * * * * * * * * * * * * * * * * * * * * * * * * * * * * * * * * * * //

dimensions      [0 1 -1 0 0 0 0];


internalField   nonuniform List<vector> 
32768
(
(-5.7906e-07 8.02817e-07 -2.66721e-07)
(-5.7906e-07 4.68594e-07 -2.07333e-07)
(-5.7906e-07 4.72001e-07 -2.34472e-07)
(-5.7906e-07 4.20676e-07 -2.62956e-07)
(-5.79059e-07 3.66001e-07 -3.04091e-07)
(-5.79058e-07 4.00215e-07 -2.90891e-07)
(-5.79057e-07 4.72259e-07 -1.9906e-07)
(-5.79052e-07 5.61417e-07 -5.74545e-08)
(-5.79046e-07 5.94438e-07 5.97704e-08)
(-5.79046e-07 6.44952e-07 1.68696e-07)
(-5.79046e-07 6.21705e-07 1.89193e-07)
(-5.79045e-07 4.94024e-07 9.79342e-08)
(-5.79045e-07 3.3055e-07 1.24394e-08)
(-5.79044e-07 1.70233e-07 -7.04445e-08)
(-5.79044e-07 1.57397e-09 -1.29033e-07)
(-5.79045e-07 -1.63311e-07 -1.58971e-07)
(-5.79045e-07 -3.10589e-07 -1.71079e-07)
(-5.79045e-07 -4.65569e-07 -1.88379e-07)
(-5.79046e-07 -6.08633e-07 -2.00306e-07)
(-5.79047e-07 -7.40598e-07 -2.15875e-07)
(-5.79048e-07 -8.52935e-07 -2.63018e-07)
(-5.79049e-07 -8.74023e-07 -2.69672e-07)
(-5.79051e-07 -7.89554e-07 -1.92945e-07)
(-5.79052e-07 -6.83391e-07 -5.91955e-08)
(-5.79054e-07 -5.27282e-07 7.05405e-08)
(-5.79055e-07 -3.39786e-07 2.04162e-07)
(-5.79057e-07 -1.25913e-07 2.70317e-07)
(-5.7906e-07 -3.26287e-08 2.16407e-07)
(-5.79061e-07 -1.91747e-08 1.05466e-07)
(-5.7906e-07 -1.46052e-07 -1.17916e-07)
(-5.7906e-07 -3.05511e-07 -2.65057e-07)
(-5.7906e-07 -6.21135e-08 -3.37291e-07)
(-1.65182e-07 8.02817e-07 -2.64748e-07)
(-1.65183e-07 4.68595e-07 -9.6312e-08)
(-1.65185e-07 4.72002e-07 -1.20176e-07)
(-1.65189e-07 4.20683e-07 -1.52509e-07)
(-1.65192e-07 3.65997e-07 -2.05217e-07)
(-1.65194e-07 4.00226e-07 -2.35639e-07)
(-1.65196e-07 4.72217e-07 -1.60253e-07)
(-1.6519e-07 5.61437e-07 -3.9701e-08)
(-1.65183e-07 5.94402e-07 7.59361e-08)
(-1.65184e-07 6.44953e-07 1.50539e-07)
(-1.65188e-07 6.21704e-07 1.13652e-07)
(-1.65192e-07 4.94043e-07 3.62678e-08)
(-1.65197e-07 3.30543e-07 -4.25478e-08)
(-1.652e-07 1.70237e-07 -1.01293e-07)
(-1.65202e-07 1.57451e-09 -1.25878e-07)
(-1.65203e-07 -1.6331e-07 -1.31177e-07)
(-1.65204e-07 -3.10589e-07 -1.23653e-07)
(-1.65204e-07 -4.65569e-07 -1.23823e-07)
(-1.65205e-07 -6.08631e-07 -1.2308e-07)
(-1.65206e-07 -7.40606e-07 -1.35795e-07)
(-1.65204e-07 -8.52934e-07 -1.78241e-07)
(-1.65202e-07 -8.74025e-07 -2.16208e-07)
(-1.65199e-07 -7.89525e-07 -1.5191e-07)
(-1.65193e-07 -6.83453e-07 -3.76492e-08)
(-1.65188e-07 -5.27239e-07 8.73731e-08)
(-1.65183e-07 -3.39797e-07 1.84016e-07)
(-1.6518e-07 -1.25905e-07 1.78045e-07)
(-1.65181e-07 -3.26312e-08 1.11217e-07)
(-1.6518e-07 -1.91719e-08 -2.54987e-08)
(-1.65179e-07 -1.46072e-07 -2.36687e-07)
(-1.6518e-07 -3.0551e-07 -3.80283e-07)
(-1.65181e-07 -6.21125e-08 -4.75259e-07)
(-1.2585e-07 8.02818e-07 -3.91071e-07)
(-1.25841e-07 4.68595e-07 -2.20728e-07)
(-1.25832e-07 4.72001e-07 -1.55474e-07)
(-1.25823e-07 4.20686e-07 -1.06805e-07)
(-1.25813e-07 3.65991e-07 -9.96407e-08)
(-1.25801e-07 4.0023e-07 -1.14e-07)
(-1.25788e-07 4.72178e-07 -8.31801e-08)
(-1.25771e-07 5.61454e-07 -1.66162e-08)
(-1.2576e-07 5.94374e-07 3.01629e-08)
(-1.25759e-07 6.44954e-07 2.55296e-08)
(-1.2576e-07 6.21702e-07 -4.09671e-08)
(-1.25762e-07 4.94059e-07 -1.12984e-07)
(-1.25765e-07 3.30537e-07 -1.86672e-07)
(-1.25769e-07 1.70241e-07 -2.28514e-07)
(-1.25772e-07 1.57637e-09 -2.32626e-07)
(-1.25777e-07 -1.6331e-07 -2.16227e-07)
(-1.25785e-07 -3.10588e-07 -1.78468e-07)
(-1.25795e-07 -4.65569e-07 -1.44121e-07)
(-1.25806e-07 -6.08628e-07 -1.11979e-07)
(-1.25817e-07 -7.4061e-07 -8.56956e-08)
(-1.25828e-07 -8.52931e-07 -7.96547e-08)
(-1.2584e-07 -8.74027e-07 -9.9275e-08)
(-1.25853e-07 -7.89488e-07 -7.62137e-08)
(-1.25864e-07 -6.83514e-07 -1.24117e-08)
(-1.25874e-07 -5.27204e-07 4.58403e-08)
(-1.25881e-07 -3.39801e-07 6.27606e-08)
(-1.25886e-07 -1.25893e-07 2.27705e-08)
(-1.2589e-07 -3.26333e-08 -3.79445e-08)
(-1.25887e-07 -1.91681e-08 -1.44722e-07)
(-1.25879e-07 -1.46091e-07 -2.61421e-07)
(-1.25869e-07 -3.0551e-07 -3.44031e-07)
(-1.25859e-07 -6.2112e-08 -3.77996e-07)
(-3.59441e-07 8.02817e-07 -4.50965e-07)
(-3.59442e-07 4.68592e-07 -2.01373e-07)
(-3.59443e-07 4.72001e-07 -6.55386e-08)
(-3.59445e-07 4.20688e-07 -1.38519e-09)
(-3.59444e-07 3.65986e-07 1.04689e-08)
(-3.59443e-07 4.00232e-07 -8.06277e-09)
(-3.59444e-07 4.72147e-07 -2.55795e-08)
(-3.5944e-07 5.61469e-07 -1.37546e-10)
(-3.59433e-07 5.94358e-07 3.89717e-08)
(-3.59431e-07 6.44954e-07 3.55525e-08)
(-3.59431e-07 6.21701e-07 -9.08894e-09)
(-3.59432e-07 4.94071e-07 -4.50101e-08)
(-3.59431e-07 3.30532e-07 -9.14946e-08)
(-3.59431e-07 1.70242e-07 -1.1279e-07)
(-3.59431e-07 1.57821e-09 -1.09781e-07)
(-3.59431e-07 -1.6331e-07 -8.42979e-08)
(-3.59431e-07 -3.10587e-07 -4.06641e-08)
(-3.5943e-07 -4.65569e-07 -5.60863e-09)
(-3.59431e-07 -6.08625e-07 1.88814e-08)
(-3.59431e-07 -7.40612e-07 3.07049e-08)
(-3.59431e-07 -8.5293e-07 3.14218e-08)
(-3.59431e-07 -8.74028e-07 6.94887e-09)
(-3.59431e-07 -7.89452e-07 -1.91018e-08)
(-3.59431e-07 -6.83568e-07 4.75829e-09)
(-3.59433e-07 -5.2718e-07 5.36656e-08)
(-3.59434e-07 -3.39804e-07 6.60684e-08)
(-3.59434e-07 -1.2588e-07 3.58628e-08)
(-3.59436e-07 -3.26359e-08 -1.68481e-09)
(-3.59438e-07 -1.91656e-08 -8.94559e-08)
(-3.59438e-07 -1.46108e-07 -1.64087e-07)
(-3.5944e-07 -3.0551e-07 -2.59503e-07)
(-3.59441e-07 -6.2113e-08 -4.05142e-07)
(-1.81843e-07 8.02817e-07 -4.85852e-07)
(-1.81841e-07 4.68588e-07 -2.34765e-07)
(-1.81838e-07 4.72e-07 -7.16038e-08)
(-1.81836e-07 4.20688e-07 -2.90044e-09)
(-1.81832e-07 3.65982e-07 1.24968e-08)
(-1.81827e-07 4.00231e-07 5.32683e-09)
(-1.81818e-07 4.72128e-07 -2.37011e-08)
(-1.81801e-07 5.6148e-07 -2.35744e-08)
(-1.81786e-07 5.94345e-07 2.5112e-09)
(-1.81778e-07 6.44954e-07 -8.70233e-09)
(-1.81774e-07 6.217e-07 -3.90405e-08)
(-1.81773e-07 4.94078e-07 -6.45815e-08)
(-1.81772e-07 3.30529e-07 -9.51859e-08)
(-1.81772e-07 1.70242e-07 -1.05502e-07)
(-1.81772e-07 1.57885e-09 -9.69938e-08)
(-1.81774e-07 -1.63309e-07 -6.95373e-08)
(-1.81778e-07 -3.10586e-07 -2.75159e-08)
(-1.81782e-07 -4.6557e-07 1.069e-08)
(-1.81786e-07 -6.08623e-07 3.60379e-08)
(-1.81788e-07 -7.40612e-07 4.20746e-08)
(-1.81791e-07 -8.52929e-07 3.70955e-08)
(-1.81796e-07 -8.74028e-07 2.01786e-08)
(-1.81811e-07 -7.89425e-07 -1.72239e-08)
(-1.81827e-07 -6.8361e-07 -1.96442e-08)
(-1.81838e-07 -5.27163e-07 1.34686e-08)
(-1.81845e-07 -3.39806e-07 1.35488e-08)
(-1.8185e-07 -1.25868e-07 -9.81544e-09)
(-1.81852e-07 -3.26383e-08 -5.31522e-08)
(-1.81851e-07 -1.91638e-08 -1.48791e-07)
(-1.81848e-07 -1.4612e-07 -2.29211e-07)
(-1.81846e-07 -3.05511e-07 -3.27276e-07)
(-1.81844e-07 -6.21142e-08 -5.16664e-07)
(6.47762e-08 8.02817e-07 -4.72663e-07)
(6.47754e-08 4.68585e-07 -2.67441e-07)
(6.47742e-08 4.71999e-07 -1.22555e-07)
(6.47728e-08 4.20688e-07 -5.27844e-08)
(6.47716e-08 3.65975e-07 -2.40741e-08)
(6.47703e-08 4.0023e-07 -7.72586e-09)
(6.47686e-08 4.72115e-07 -2.57288e-08)
(6.47686e-08 5.61487e-07 -3.83519e-08)
(6.47689e-08 5.9433e-07 -3.36807e-08)
(6.47682e-08 6.44954e-07 -5.43629e-08)
(6.47677e-08 6.21699e-07 -8.32971e-08)
(6.47669e-08 4.94081e-07 -1.19621e-07)
(6.47668e-08 3.30528e-07 -1.51297e-07)
(6.47667e-08 1.70242e-07 -1.71067e-07)
(6.47666e-08 1.57936e-09 -1.65797e-07)
(6.47667e-08 -1.6331e-07 -1.35026e-07)
(6.47674e-08 -3.10585e-07 -9.12041e-08)
(6.47685e-08 -4.65572e-07 -4.81916e-08)
(6.47699e-08 -6.08617e-07 -1.35031e-08)
(6.47708e-08 -7.40611e-07 1.67278e-09)
(6.47722e-08 -8.52927e-07 6.90049e-09)
(6.47736e-08 -8.74029e-07 8.82824e-09)
(6.47745e-08 -7.89402e-07 -1.88193e-08)
(6.4776e-08 -6.8364e-07 -3.60134e-08)
(6.47774e-08 -5.27148e-07 -2.68235e-08)
(6.47779e-08 -3.39808e-07 -3.76775e-08)
(6.47782e-08 -1.25857e-07 -5.95573e-08)
(6.47777e-08 -3.26398e-08 -1.14356e-07)
(6.47773e-08 -1.91617e-08 -2.12878e-07)
(6.47772e-08 -1.46126e-07 -3.13096e-07)
(6.47768e-08 -3.05511e-07 -3.9665e-07)
(6.47766e-08 -6.21146e-08 -5.39249e-07)
(6.3058e-08 8.02817e-07 -4.29616e-07)
(6.30586e-08 4.68583e-07 -2.62695e-07)
(6.30608e-08 4.72e-07 -1.51506e-07)
(6.30634e-08 4.20691e-07 -9.63068e-08)
(6.30663e-08 3.65969e-07 -6.79075e-08)
(6.30693e-08 4.00231e-07 -4.32375e-08)
(6.30721e-08 4.72108e-07 -4.66018e-08)
(6.3076e-08 5.61493e-07 -5.68874e-08)
(6.30803e-08 5.94319e-07 -5.75591e-08)
(6.30828e-08 6.44955e-07 -7.79978e-08)
(6.30846e-08 6.21699e-07 -1.10426e-07)
(6.30852e-08 4.94083e-07 -1.57436e-07)
(6.30855e-08 3.30527e-07 -2.0125e-07)
(6.30857e-08 1.70242e-07 -2.22618e-07)
(6.30856e-08 1.57988e-09 -2.1734e-07)
(6.3085e-08 -1.6331e-07 -1.82613e-07)
(6.3084e-08 -3.10585e-07 -1.42407e-07)
(6.30819e-08 -4.65578e-07 -1.03984e-07)
(6.30794e-08 -6.08612e-07 -6.55798e-08)
(6.30766e-08 -7.40613e-07 -4.39414e-08)
(6.30745e-08 -8.52925e-07 -3.57793e-08)
(6.30721e-08 -8.74031e-07 -2.69383e-08)
(6.30679e-08 -7.89383e-07 -4.15552e-08)
(6.30643e-08 -6.83661e-07 -5.82309e-08)
(6.30614e-08 -5.2714e-07 -5.76881e-08)
(6.30598e-08 -3.3981e-07 -7.03914e-08)
(6.30585e-08 -1.2585e-07 -9.65866e-08)
(6.30572e-08 -3.2641e-08 -1.57315e-07)
(6.30565e-08 -1.91611e-08 -2.55949e-07)
(6.30566e-08 -1.46129e-07 -3.46927e-07)
(6.30567e-08 -3.0551e-07 -4.06059e-07)
(6.30573e-08 -6.2114e-08 -4.66097e-07)
(4.20047e-07 8.02817e-07 -4.10971e-07)
(4.20045e-07 4.68578e-07 -2.3581e-07)
(4.20041e-07 4.71999e-07 -1.32953e-07)
(4.20038e-07 4.20694e-07 -9.10421e-08)
(4.20034e-07 3.65961e-07 -7.12475e-08)
(4.2003e-07 4.0023e-07 -5.83715e-08)
(4.20026e-07 4.72103e-07 -6.29082e-08)
(4.20024e-07 5.61497e-07 -7.33743e-08)
(4.20022e-07 5.94312e-07 -8.21181e-08)
(4.2002e-07 6.44956e-07 -1.02359e-07)
(4.2002e-07 6.21699e-07 -1.32081e-07)
(4.2002e-07 4.94083e-07 -1.64551e-07)
(4.2002e-07 3.30527e-07 -1.92575e-07)
(4.2002e-07 1.70243e-07 -2.00973e-07)
(4.20022e-07 1.581e-09 -1.90953e-07)
(4.20024e-07 -1.6331e-07 -1.63351e-07)
(4.20028e-07 -3.10584e-07 -1.26807e-07)
(4.20031e-07 -4.65585e-07 -9.05652e-08)
(4.20034e-07 -6.08607e-07 -5.72178e-08)
(4.20038e-07 -7.40612e-07 -4.18429e-08)
(4.20043e-07 -8.52922e-07 -4.16533e-08)
(4.20047e-07 -8.74032e-07 -4.34544e-08)
(4.2005e-07 -7.89367e-07 -5.96017e-08)
(4.20053e-07 -6.83671e-07 -7.72209e-08)
(4.20054e-07 -5.27136e-07 -8.78045e-08)
(4.20055e-07 -3.39811e-07 -1.0405e-07)
(4.20055e-07 -1.25847e-07 -1.30098e-07)
(4.20054e-07 -3.26422e-08 -1.70406e-07)
(4.20053e-07 -1.9161e-08 -2.35771e-07)
(4.20053e-07 -1.46131e-07 -2.99147e-07)
(4.20051e-07 -3.05511e-07 -3.52161e-07)
(4.20048e-07 -6.21146e-08 -3.91759e-07)
(4.52319e-07 8.02819e-07 -3.55789e-07)
(4.52323e-07 4.68577e-07 -1.82816e-07)
(4.52326e-07 4.71999e-07 -9.53022e-08)
(4.52329e-07 4.20697e-07 -6.55371e-08)
(4.52331e-07 3.65954e-07 -5.40838e-08)
(4.52332e-07 4.00225e-07 -5.71218e-08)
(4.52334e-07 4.72101e-07 -7.0704e-08)
(4.52336e-07 5.61496e-07 -8.79472e-08)
(4.52337e-07 5.94308e-07 -1.01854e-07)
(4.52337e-07 6.44955e-07 -1.15376e-07)
(4.52338e-07 6.217e-07 -1.34971e-07)
(4.52338e-07 4.94082e-07 -1.51534e-07)
(4.52337e-07 3.30526e-07 -1.62504e-07)
(4.52336e-07 1.70242e-07 -1.61195e-07)
(4.52333e-07 1.57889e-09 -1.48537e-07)
(4.5233e-07 -1.63311e-07 -1.24551e-07)
(4.52326e-07 -3.10585e-07 -9.02827e-08)
(4.52322e-07 -4.65593e-07 -5.65432e-08)
(4.52319e-07 -6.08605e-07 -3.06572e-08)
(4.52317e-07 -7.4061e-07 -2.24735e-08)
(4.52316e-07 -8.5292e-07 -3.22503e-08)
(4.52314e-07 -8.74032e-07 -4.95387e-08)
(4.52311e-07 -7.89356e-07 -7.2076e-08)
(4.52309e-07 -6.83674e-07 -9.54706e-08)
(4.52308e-07 -5.27134e-07 -1.12381e-07)
(4.52308e-07 -3.3981e-07 -1.24118e-07)
(4.52307e-07 -1.25844e-07 -1.3726e-07)
(4.52307e-07 -3.26425e-08 -1.53897e-07)
(4.52308e-07 -1.91602e-08 -1.87953e-07)
(4.5231e-07 -1.46128e-07 -2.36804e-07)
(4.52312e-07 -3.05511e-07 -2.93266e-07)
(4.52315e-07 -6.21131e-08 -3.39305e-07)
(7.81149e-07 8.0282e-07 -2.78249e-07)
(7.81147e-07 4.68577e-07 -1.13788e-07)
(7.81146e-07 4.72001e-07 -5.57678e-08)
(7.81145e-07 4.20702e-07 -5.0831e-08)
(7.81144e-07 3.65953e-07 -5.75616e-08)
(7.81142e-07 4.00221e-07 -7.35156e-08)
(7.81141e-07 4.72104e-07 -9.45345e-08)
(7.81141e-07 5.61496e-07 -1.14116e-07)
(7.8114e-07 5.94308e-07 -1.23224e-07)
(7.8114e-07 6.44955e-07 -1.34773e-07)
(7.81141e-07 6.217e-07 -1.47524e-07)
(7.81141e-07 4.94081e-07 -1.59254e-07)
(7.81142e-07 3.30525e-07 -1.6357e-07)
(7.81143e-07 1.70241e-07 -1.55156e-07)
(7.81144e-07 1.57448e-09 -1.32604e-07)
(7.81147e-07 -1.63312e-07 -1.0647e-07)
(7.8115e-07 -3.10586e-07 -6.99166e-08)
(7.81152e-07 -4.65602e-07 -3.29037e-08)
(7.81155e-07 -6.08608e-07 -1.76938e-08)
(7.81155e-07 -7.4061e-07 -2.20842e-08)
(7.81156e-07 -8.5292e-07 -4.57159e-08)
(7.81157e-07 -8.74033e-07 -7.23341e-08)
(7.81159e-07 -7.89352e-07 -1.0021e-07)
(7.81159e-07 -6.83675e-07 -1.2409e-07)
(7.81159e-07 -5.27136e-07 -1.36443e-07)
(7.81159e-07 -3.39808e-07 -1.48485e-07)
(7.81159e-07 -1.25844e-07 -1.55904e-07)
(7.81158e-07 -3.26426e-08 -1.58672e-07)
(7.81157e-07 -1.91597e-08 -1.70531e-07)
(7.81156e-07 -1.46123e-07 -2.04414e-07)
(7.81153e-07 -3.0551e-07 -2.31985e-07)
(7.81151e-07 -6.21117e-08 -2.38097e-07)
(7.02828e-07 8.0282e-07 -2.35112e-07)
(7.02829e-07 4.68576e-07 -8.99562e-08)
(7.02829e-07 4.72001e-07 -5.68501e-08)
(7.0283e-07 4.20705e-07 -6.93731e-08)
(7.02832e-07 3.65953e-07 -7.78143e-08)
(7.02834e-07 4.00217e-07 -9.61174e-08)
(7.02835e-07 4.72111e-07 -1.21592e-07)
(7.02837e-07 5.61495e-07 -1.37778e-07)
(7.02837e-07 5.94309e-07 -1.35463e-07)
(7.02838e-07 6.44954e-07 -1.41436e-07)
(7.02838e-07 6.21701e-07 -1.51801e-07)
(7.02839e-07 4.94079e-07 -1.60928e-07)
(7.0284e-07 3.30524e-07 -1.62161e-07)
(7.0284e-07 1.70242e-07 -1.49403e-07)
(7.02839e-07 1.56973e-09 -1.21345e-07)
(7.02837e-07 -1.63312e-07 -8.77573e-08)
(7.02835e-07 -3.10586e-07 -5.0404e-08)
(7.02833e-07 -4.65609e-07 -2.61972e-08)
(7.0283e-07 -6.08611e-07 -2.55344e-08)
(7.02828e-07 -7.40612e-07 -4.22998e-08)
(7.02827e-07 -8.5292e-07 -7.01759e-08)
(7.02826e-07 -8.74032e-07 -9.95237e-08)
(7.02825e-07 -7.8935e-07 -1.29574e-07)
(7.02825e-07 -6.83673e-07 -1.49135e-07)
(7.02824e-07 -5.27138e-07 -1.52673e-07)
(7.02824e-07 -3.39804e-07 -1.62766e-07)
(7.02823e-07 -1.25844e-07 -1.71258e-07)
(7.02824e-07 -3.2643e-08 -1.71657e-07)
(7.02824e-07 -1.91601e-08 -1.73331e-07)
(7.02824e-07 -1.46115e-07 -2.03743e-07)
(7.02826e-07 -3.0551e-07 -2.15791e-07)
(7.02827e-07 -6.2113e-08 -1.79122e-07)
(6.9353e-07 8.02821e-07 -2.57858e-07)
(6.93526e-07 4.68578e-07 -1.12704e-07)
(6.93518e-07 4.72001e-07 -7.46033e-08)
(6.93507e-07 4.20707e-07 -7.48195e-08)
(6.93497e-07 3.65956e-07 -8.29356e-08)
(6.93488e-07 4.00213e-07 -1.02375e-07)
(6.93481e-07 4.72119e-07 -1.33918e-07)
(6.93478e-07 5.61494e-07 -1.39512e-07)
(6.93479e-07 5.94314e-07 -1.22689e-07)
(6.93479e-07 6.44954e-07 -1.20316e-07)
(6.9348e-07 6.21702e-07 -1.29321e-07)
(6.93483e-07 4.94077e-07 -1.40105e-07)
(6.93489e-07 3.30524e-07 -1.47183e-07)
(6.93499e-07 1.70241e-07 -1.36659e-07)
(6.93513e-07 1.56364e-09 -1.08792e-07)
(6.9353e-07 -1.63314e-07 -7.32521e-08)
(6.93548e-07 -3.10587e-07 -3.77119e-08)
(6.93564e-07 -4.65614e-07 -1.87749e-08)
(6.93574e-07 -6.08613e-07 -1.96723e-08)
(6.9358e-07 -7.40613e-07 -3.82586e-08)
(6.93583e-07 -8.52921e-07 -7.17672e-08)
(6.93584e-07 -8.74032e-07 -1.04779e-07)
(6.93584e-07 -7.89351e-07 -1.39991e-07)
(6.93582e-07 -6.8367e-07 -1.50705e-07)
(6.93578e-07 -5.27139e-07 -1.42865e-07)
(6.93573e-07 -3.39798e-07 -1.50498e-07)
(6.93567e-07 -1.25842e-07 -1.62869e-07)
(6.93563e-07 -3.26415e-08 -1.67704e-07)
(6.93555e-07 -1.9161e-08 -1.71335e-07)
(6.93543e-07 -1.46103e-07 -2.10974e-07)
(6.93537e-07 -3.05509e-07 -2.26521e-07)
(6.93533e-07 -6.21119e-08 -1.7275e-07)
(6.39489e-07 8.02822e-07 -2.30033e-07)
(6.39489e-07 4.68582e-07 -1.15683e-07)
(6.3949e-07 4.72001e-07 -7.36947e-08)
(6.3949e-07 4.20706e-07 -6.39602e-08)
(6.3949e-07 3.65958e-07 -6.60982e-08)
(6.3949e-07 4.00207e-07 -8.22829e-08)
(6.3949e-07 4.72126e-07 -1.13942e-07)
(6.39489e-07 5.61491e-07 -1.02929e-07)
(6.39486e-07 5.9432e-07 -6.93445e-08)
(6.39484e-07 6.44952e-07 -5.68598e-08)
(6.39482e-07 6.21702e-07 -6.54453e-08)
(6.39482e-07 4.94071e-07 -8.1099e-08)
(6.39481e-07 3.30522e-07 -9.87363e-08)
(6.39479e-07 1.70237e-07 -9.98717e-08)
(6.39476e-07 1.55819e-09 -8.01085e-08)
(6.39473e-07 -1.63315e-07 -4.8153e-08)
(6.39472e-07 -3.10587e-07 -1.04275e-08)
(6.39472e-07 -4.65615e-07 9.31057e-09)
(6.39472e-07 -6.08613e-07 8.76381e-09)
(6.39472e-07 -7.40613e-07 -1.16168e-08)
(6.39471e-07 -8.52922e-07 -4.68666e-08)
(6.39471e-07 -8.74031e-07 -7.92819e-08)
(6.39471e-07 -7.89353e-07 -1.15744e-07)
(6.39472e-07 -6.83661e-07 -1.12412e-07)
(6.39472e-07 -5.27138e-07 -9.10679e-08)
(6.39473e-07 -3.39788e-07 -9.40371e-08)
(6.39475e-07 -1.2584e-07 -1.12412e-07)
(6.39478e-07 -3.26379e-08 -1.26798e-07)
(6.39481e-07 -1.91619e-08 -1.39734e-07)
(6.39482e-07 -1.46088e-07 -1.91564e-07)
(6.39486e-07 -3.05506e-07 -2.18428e-07)
(6.39488e-07 -6.21103e-08 -1.76191e-07)
(6.37253e-07 8.0282e-07 -1.01493e-07)
(6.37251e-07 4.68585e-07 -8.05156e-08)
(6.37251e-07 4.72001e-07 -7.13837e-08)
(6.3725e-07 4.20704e-07 -8.06898e-08)
(6.37249e-07 3.65959e-07 -9.38252e-08)
(6.37249e-07 4.002e-07 -1.21362e-07)
(6.37249e-07 4.72131e-07 -1.40634e-07)
(6.37246e-07 5.61483e-07 -1.08868e-07)
(6.37246e-07 5.94333e-07 -5.88745e-08)
(6.37247e-07 6.4495e-07 -3.50722e-08)
(6.37248e-07 6.21704e-07 -3.95303e-08)
(6.37251e-07 4.94064e-07 -6.40742e-08)
(6.37254e-07 3.30523e-07 -9.54739e-08)
(6.37255e-07 1.70232e-07 -1.04861e-07)
(6.37257e-07 1.55679e-09 -9.24934e-08)
(6.3726e-07 -1.63314e-07 -6.67703e-08)
(6.37264e-07 -3.10585e-07 -3.37636e-08)
(6.37266e-07 -4.65613e-07 -1.80746e-08)
(6.37268e-07 -6.08612e-07 -1.42998e-08)
(6.3727e-07 -7.4061e-07 -3.88146e-08)
(6.37271e-07 -8.52923e-07 -7.61187e-08)
(6.37271e-07 -8.7403e-07 -1.13049e-07)
(6.37272e-07 -7.89355e-07 -1.37288e-07)
(6.37273e-07 -6.83641e-07 -1.15096e-07)
(6.37271e-07 -5.27148e-07 -7.92423e-08)
(6.37269e-07 -3.39778e-07 -7.42369e-08)
(6.37267e-07 -1.25841e-07 -9.61075e-08)
(6.37265e-07 -3.26355e-08 -1.23498e-07)
(6.37262e-07 -1.91645e-08 -1.47654e-07)
(6.37258e-07 -1.46074e-07 -1.94361e-07)
(6.37256e-07 -3.05505e-07 -2.05449e-07)
(6.37256e-07 -6.21112e-08 -1.65123e-07)
(6.19548e-07 8.02819e-07 4.0383e-08)
(6.19549e-07 4.68589e-07 2.31061e-09)
(6.1955e-07 4.72001e-07 -1.43029e-08)
(6.19552e-07 4.20701e-07 -5.30655e-08)
(6.19553e-07 3.65964e-07 -9.39158e-08)
(6.19555e-07 4.00195e-07 -1.34147e-07)
(6.19556e-07 4.72134e-07 -1.43475e-07)
(6.19551e-07 5.61472e-07 -1.04649e-07)
(6.19548e-07 5.94359e-07 -5.08594e-08)
(6.19547e-07 6.44948e-07 -1.45342e-08)
(6.19546e-07 6.21706e-07 -7.98842e-09)
(6.19546e-07 4.94054e-07 -3.40988e-08)
(6.19545e-07 3.30525e-07 -7.8922e-08)
(6.19546e-07 1.70231e-07 -9.54676e-08)
(6.19546e-07 1.55798e-09 -8.60089e-08)
(6.19547e-07 -1.63312e-07 -6.63417e-08)
(6.19547e-07 -3.10582e-07 -3.88555e-08)
(6.19547e-07 -4.65611e-07 -2.38751e-08)
(6.19548e-07 -6.08611e-07 -2.37679e-08)
(6.19548e-07 -7.40605e-07 -5.87712e-08)
(6.19548e-07 -8.52924e-07 -1.00188e-07)
(6.19547e-07 -8.74029e-07 -1.33381e-07)
(6.19548e-07 -7.89357e-07 -1.40013e-07)
(6.19547e-07 -6.83616e-07 -1.07275e-07)
(6.19546e-07 -5.27175e-07 -6.59971e-08)
(6.19545e-07 -3.39774e-07 -4.8247e-08)
(6.19545e-07 -1.25844e-07 -6.342e-08)
(6.19546e-07 -3.26349e-08 -9.8545e-08)
(6.19546e-07 -1.91678e-08 -1.33192e-07)
(6.19545e-07 -1.46063e-07 -1.63935e-07)
(6.19546e-07 -3.05505e-07 -1.43778e-07)
(6.19547e-07 -6.21125e-08 -1.21313e-07)
(4.69224e-07 8.02819e-07 7.62239e-08)
(4.69225e-07 4.68593e-07 5.14596e-08)
(4.69227e-07 4.72001e-07 9.82701e-08)
(4.6923e-07 4.20697e-07 1.02289e-07)
(4.69235e-07 3.65973e-07 5.58695e-08)
(4.69241e-07 4.00192e-07 -3.56502e-09)
(4.69245e-07 4.72144e-07 -2.28599e-09)
(4.69243e-07 5.61457e-07 3.02018e-08)
(4.69239e-07 5.94395e-07 6.85294e-08)
(4.69241e-07 6.44946e-07 1.09227e-07)
(4.69242e-07 6.21705e-07 1.31738e-07)
(4.69244e-07 4.94039e-07 1.08829e-07)
(4.69249e-07 3.30529e-07 5.48254e-08)
(4.69254e-07 1.70228e-07 3.26876e-08)
(4.69258e-07 1.55728e-09 3.51603e-08)
(4.69261e-07 -1.63312e-07 4.83288e-08)
(4.69263e-07 -3.10583e-07 7.17756e-08)
(4.69265e-07 -4.65612e-07 8.59534e-08)
(4.69265e-07 -6.08611e-07 8.03963e-08)
(4.69265e-07 -7.40599e-07 5.05531e-08)
(4.69262e-07 -8.52926e-07 1.05251e-08)
(4.69256e-07 -8.74029e-07 -2.56908e-08)
(4.69251e-07 -7.89364e-07 -7.26441e-09)
(4.69244e-07 -6.83579e-07 3.01221e-08)
(4.69238e-07 -5.27214e-07 6.26764e-08)
(4.69233e-07 -3.39769e-07 9.10848e-08)
(4.69232e-07 -1.25845e-07 9.00563e-08)
(4.69233e-07 -3.26338e-08 4.47766e-08)
(4.69231e-07 -1.91696e-08 -1.86179e-08)
(4.69227e-07 -1.46049e-07 -6.06296e-08)
(4.69224e-07 -3.05505e-07 -6.62527e-08)
(4.69224e-07 -6.21123e-08 2.1958e-08)
(1.56997e-07 8.02819e-07 3.75063e-08)
(1.56996e-07 4.68594e-07 1.02791e-07)
(1.56995e-07 4.72e-07 8.78414e-08)
(1.56993e-07 4.20689e-07 4.49387e-08)
(1.56991e-07 3.65982e-07 -2.76651e-08)
(1.56991e-07 4.00188e-07 -6.25332e-08)
(1.56991e-07 4.72157e-07 -5.02042e-08)
(1.5698e-07 5.61439e-07 -1.95766e-08)
(1.56971e-07 5.94437e-07 1.01388e-08)
(1.56968e-07 6.44945e-07 5.13593e-08)
(1.56966e-07 6.21706e-07 7.13662e-08)
(1.56967e-07 4.9402e-07 3.47845e-08)
(1.56967e-07 3.30534e-07 -1.55805e-09)
(1.56969e-07 1.70224e-07 -2.49802e-08)
(1.56971e-07 1.55627e-09 -2.8753e-08)
(1.56972e-07 -1.63312e-07 -1.43464e-08)
(1.56974e-07 -3.10582e-07 1.15853e-08)
(1.56978e-07 -4.6561e-07 2.36914e-08)
(1.56982e-07 -6.08611e-07 2.62289e-08)
(1.56985e-07 -7.40592e-07 3.36022e-09)
(1.56986e-07 -8.52929e-07 -5.62577e-08)
(1.56986e-07 -8.74028e-07 -7.59054e-08)
(1.56986e-07 -7.89383e-07 -5.24576e-08)
(1.56988e-07 -6.83525e-07 -1.9036e-08)
(1.56989e-07 -5.2726e-07 8.16041e-09)
(1.56991e-07 -3.39762e-07 3.54928e-08)
(1.56993e-07 -1.25847e-07 3.0709e-08)
(1.56994e-07 -3.26326e-08 -3.15214e-08)
(1.56996e-07 -1.9171e-08 -4.69736e-08)
(1.56996e-07 -1.46031e-07 3.30285e-08)
(1.56997e-07 -3.05505e-07 1.28671e-07)
(1.56997e-07 -6.21121e-08 1.25189e-07)
(7.90027e-08 8.02819e-07 1.6004e-07)
(7.90268e-08 4.68594e-07 1.87437e-07)
(7.90492e-08 4.71999e-07 1.989e-07)
(7.90669e-08 4.20677e-07 1.7125e-07)
(7.90789e-08 3.65993e-07 1.16663e-07)
(7.90857e-08 4.00184e-07 7.44432e-08)
(7.9088e-08 4.72171e-07 6.82694e-08)
(7.90784e-08 5.6142e-07 9.21897e-08)
(7.90707e-08 5.94478e-07 1.28851e-07)
(7.90712e-08 6.44943e-07 1.65381e-07)
(7.90708e-08 6.21706e-07 1.61975e-07)
(7.90682e-08 4.94e-07 1.2468e-07)
(7.90618e-08 3.3054e-07 8.25827e-08)
(7.90522e-08 1.70219e-07 5.23614e-08)
(7.9042e-08 1.55769e-09 5.42624e-08)
(7.90313e-08 -1.63312e-07 7.04371e-08)
(7.90197e-08 -3.1058e-07 1.00041e-07)
(7.90106e-08 -4.65605e-07 1.21007e-07)
(7.90038e-08 -6.08608e-07 1.31484e-07)
(7.89955e-08 -7.40582e-07 1.14129e-07)
(7.89796e-08 -8.52931e-07 6.69142e-08)
(7.89612e-08 -8.74027e-07 3.97775e-08)
(7.89452e-08 -7.89413e-07 5.07637e-08)
(7.89333e-08 -6.83462e-07 8.55511e-08)
(7.89281e-08 -5.27304e-07 1.26516e-07)
(7.89247e-08 -3.39755e-07 1.60048e-07)
(7.8923e-08 -1.2585e-07 1.45068e-07)
(7.89287e-08 -3.26307e-08 9.40456e-08)
(7.89369e-08 -1.91718e-08 6.01824e-08)
(7.8947e-08 -1.46011e-07 6.36725e-08)
(7.89614e-08 -3.05506e-07 1.25734e-07)
(7.898e-08 -6.21115e-08 1.62396e-07)
(-8.0844e-08 8.02818e-07 2.03511e-07)
(-8.08902e-08 4.68595e-07 2.4518e-07)
(-8.09246e-08 4.72002e-07 2.37238e-07)
(-8.0957e-08 4.20665e-07 2.0294e-07)
(-8.09913e-08 3.66007e-07 1.61306e-07)
(-8.10233e-08 4.00179e-07 1.20851e-07)
(-8.10515e-08 4.72198e-07 1.01293e-07)
(-8.10779e-08 5.61402e-07 1.1756e-07)
(-8.10932e-08 5.94513e-07 1.52204e-07)
(-8.10951e-08 6.44943e-07 1.73379e-07)
(-8.10926e-08 6.21707e-07 1.53711e-07)
(-8.10844e-08 4.93982e-07 1.1394e-07)
(-8.10712e-08 3.30545e-07 7.33159e-08)
(-8.10554e-08 1.70208e-07 4.96085e-08)
(-8.10329e-08 1.55944e-09 5.3166e-08)
(-8.09972e-08 -1.63313e-07 6.92263e-08)
(-8.09479e-08 -3.10579e-07 1.03148e-07)
(-8.08873e-08 -4.656e-07 1.30753e-07)
(-8.08225e-08 -6.08606e-07 1.44621e-07)
(-8.07607e-08 -7.40575e-07 1.35068e-07)
(-8.07097e-08 -8.52934e-07 1.04565e-07)
(-8.06711e-08 -8.74025e-07 7.81876e-08)
(-8.06456e-08 -7.89453e-07 7.56669e-08)
(-8.06331e-08 -6.83398e-07 1.05654e-07)
(-8.06287e-08 -5.27342e-07 1.4834e-07)
(-8.06303e-08 -3.3975e-07 1.72252e-07)
(-8.06359e-08 -1.25856e-07 1.51559e-07)
(-8.06448e-08 -3.26284e-08 1.18066e-07)
(-8.06636e-08 -1.91749e-08 9.90517e-08)
(-8.06963e-08 -1.45993e-07 8.40519e-08)
(-8.07402e-08 -3.05508e-07 1.3938e-07)
(-8.07917e-08 -6.21109e-08 2.62832e-07)
(-2.3412e-07 8.02818e-07 2.24985e-07)
(-2.34111e-07 4.68592e-07 2.63657e-07)
(-2.34097e-07 4.72005e-07 2.47625e-07)
(-2.34075e-07 4.20655e-07 2.15727e-07)
(-2.34049e-07 3.66021e-07 1.91168e-07)
(-2.34025e-07 4.00172e-07 1.62519e-07)
(-2.34005e-07 4.72237e-07 1.39604e-07)
(-2.33995e-07 5.61388e-07 1.44182e-07)
(-2.33988e-07 5.9454e-07 1.69138e-07)
(-2.3398e-07 6.44942e-07 1.72434e-07)
(-2.33974e-07 6.21708e-07 1.40256e-07)
(-2.33969e-07 4.93968e-07 1.07587e-07)
(-2.33966e-07 3.3055e-07 6.89043e-08)
(-2.33963e-07 1.70199e-07 4.74445e-08)
(-2.33962e-07 1.55943e-09 4.50895e-08)
(-2.33965e-07 -1.63315e-07 6.40527e-08)
(-2.33976e-07 -3.10581e-07 1.02955e-07)
(-2.33995e-07 -4.65597e-07 1.35714e-07)
(-2.34023e-07 -6.0861e-07 1.55383e-07)
(-2.34055e-07 -7.40572e-07 1.53603e-07)
(-2.34086e-07 -8.52937e-07 1.38986e-07)
(-2.34111e-07 -8.74022e-07 1.22754e-07)
(-2.3413e-07 -7.89495e-07 1.12378e-07)
(-2.34143e-07 -6.83343e-07 1.29719e-07)
(-2.34152e-07 -5.27374e-07 1.62523e-07)
(-2.34157e-07 -3.39745e-07 1.69093e-07)
(-2.34159e-07 -1.25865e-07 1.40164e-07)
(-2.34154e-07 -3.2626e-08 1.2766e-07)
(-2.34147e-07 -1.91778e-08 1.2444e-07)
(-2.3414e-07 -1.45979e-07 1.06133e-07)
(-2.34133e-07 -3.05509e-07 1.44688e-07)
(-2.34128e-07 -6.21126e-08 3.20021e-07)
(-4.00008e-07 8.02818e-07 2.30135e-07)
(-4.0001e-07 4.68589e-07 2.55559e-07)
(-4.00014e-07 4.72005e-07 2.46649e-07)
(-4.00021e-07 4.20649e-07 2.29196e-07)
(-4.00031e-07 3.66032e-07 2.20552e-07)
(-4.00043e-07 4.00164e-07 2.04334e-07)
(-4.00059e-07 4.72278e-07 1.82207e-07)
(-4.00079e-07 5.61377e-07 1.76739e-07)
(-4.00095e-07 5.94556e-07 1.88989e-07)
(-4.001e-07 6.44941e-07 1.79235e-07)
(-4.00099e-07 6.21708e-07 1.46696e-07)
(-4.00098e-07 4.93958e-07 1.1651e-07)
(-4.00094e-07 3.30553e-07 8.263e-08)
(-4.00088e-07 1.70196e-07 6.26856e-08)
(-4.0008e-07 1.55947e-09 6.00733e-08)
(-4.0007e-07 -1.63318e-07 7.55793e-08)
(-4.0006e-07 -3.10584e-07 1.09436e-07)
(-4.00049e-07 -4.65594e-07 1.45962e-07)
(-4.00041e-07 -6.08617e-07 1.74121e-07)
(-4.00037e-07 -7.40574e-07 1.82679e-07)
(-4.00034e-07 -8.52939e-07 1.79105e-07)
(-4.00032e-07 -8.74022e-07 1.70331e-07)
(-4.00029e-07 -7.89533e-07 1.57194e-07)
(-4.00024e-07 -6.83302e-07 1.61429e-07)
(-4.00015e-07 -5.27394e-07 1.8006e-07)
(-4.0001e-07 -3.39739e-07 1.73012e-07)
(-4.00011e-07 -1.25877e-07 1.46467e-07)
(-4.00009e-07 -3.26241e-08 1.40441e-07)
(-4.00007e-07 -1.91783e-08 1.45144e-07)
(-4.00007e-07 -1.45972e-07 1.22567e-07)
(-4.00007e-07 -3.0551e-07 1.45536e-07)
(-4.00007e-07 -6.2114e-08 3.18326e-07)
(-5.12453e-07 8.02819e-07 2.5926e-07)
(-5.12452e-07 4.6859e-07 2.43022e-07)
(-5.1245e-07 4.72005e-07 2.23657e-07)
(-5.12448e-07 4.20645e-07 2.11154e-07)
(-5.12447e-07 3.66038e-07 2.10049e-07)
(-5.12445e-07 4.00158e-07 2.02824e-07)
(-5.12444e-07 4.72311e-07 1.8528e-07)
(-5.12445e-07 5.61368e-07 1.75757e-07)
(-5.12447e-07 5.94565e-07 1.7503e-07)
(-5.12447e-07 6.4494e-07 1.56937e-07)
(-5.12447e-07 6.21709e-07 1.28765e-07)
(-5.12447e-07 4.93953e-07 1.00006e-07)
(-5.12448e-07 3.30555e-07 7.32159e-08)
(-5.12449e-07 1.70193e-07 5.47391e-08)
(-5.1245e-07 1.55974e-09 5.47395e-08)
(-5.12451e-07 -1.63319e-07 7.58216e-08)
(-5.12452e-07 -3.10587e-07 1.10105e-07)
(-5.12454e-07 -4.65592e-07 1.42111e-07)
(-5.12455e-07 -6.08623e-07 1.69372e-07)
(-5.12455e-07 -7.40575e-07 1.79099e-07)
(-5.12455e-07 -8.52939e-07 1.80109e-07)
(-5.12455e-07 -8.74022e-07 1.7527e-07)
(-5.12454e-07 -7.89562e-07 1.63868e-07)
(-5.12457e-07 -6.83276e-07 1.60084e-07)
(-5.12459e-07 -5.27408e-07 1.64321e-07)
(-5.12459e-07 -3.39731e-07 1.48584e-07)
(-5.12458e-07 -1.25888e-07 1.28355e-07)
(-5.12456e-07 -3.26223e-08 1.24262e-07)
(-5.12455e-07 -1.91784e-08 1.35297e-07)
(-5.12455e-07 -1.4597e-07 1.10781e-07)
(-5.12455e-07 -3.0551e-07 1.34303e-07)
(-5.12454e-07 -6.21129e-08 2.95006e-07)
(-2.88614e-07 8.02819e-07 3.19666e-07)
(-2.88614e-07 4.68591e-07 2.67714e-07)
(-2.88615e-07 4.72005e-07 2.25785e-07)
(-2.88616e-07 4.20642e-07 1.99448e-07)
(-2.88616e-07 3.6604e-07 1.88935e-07)
(-2.88616e-07 4.00155e-07 1.81836e-07)
(-2.88617e-07 4.72333e-07 1.66192e-07)
(-2.88618e-07 5.61363e-07 1.55466e-07)
(-2.88619e-07 5.94572e-07 1.46786e-07)
(-2.88619e-07 6.4494e-07 1.24251e-07)
(-2.88618e-07 6.21709e-07 1.01771e-07)
(-2.88617e-07 4.93951e-07 7.55896e-08)
(-2.88617e-07 3.30557e-07 5.00306e-08)
(-2.88616e-07 1.70192e-07 4.22339e-08)
(-2.88616e-07 1.56184e-09 5.40554e-08)
(-2.88615e-07 -1.63318e-07 8.83787e-08)
(-2.88614e-07 -3.10588e-07 1.2223e-07)
(-2.88613e-07 -4.65587e-07 1.45732e-07)
(-2.88612e-07 -6.08628e-07 1.66903e-07)
(-2.88611e-07 -7.40574e-07 1.72689e-07)
(-2.8861e-07 -8.52939e-07 1.67646e-07)
(-2.8861e-07 -8.7402e-07 1.59518e-07)
(-2.88609e-07 -7.8958e-07 1.47578e-07)
(-2.88609e-07 -6.83259e-07 1.40976e-07)
(-2.88609e-07 -5.27421e-07 1.36104e-07)
(-2.88609e-07 -3.39723e-07 1.17582e-07)
(-2.88609e-07 -1.25899e-07 1.04221e-07)
(-2.88609e-07 -3.2621e-08 1.01063e-07)
(-2.8861e-07 -1.91792e-08 1.11387e-07)
(-2.88611e-07 -1.45969e-07 1.08415e-07)
(-2.88612e-07 -3.05511e-07 1.58533e-07)
(-2.88613e-07 -6.21121e-08 3.36944e-07)
(-3.6578e-07 8.02818e-07 4.00162e-07)
(-3.65772e-07 4.6859e-07 3.19821e-07)
(-3.65764e-07 4.72005e-07 2.60363e-07)
(-3.65758e-07 4.20639e-07 2.15681e-07)
(-3.65754e-07 3.6604e-07 1.85839e-07)
(-3.65752e-07 4.00153e-07 1.65286e-07)