/*--------------------------------*- C++ -*----------------------------------*\
| =========                 |                                                 |
| \\      /  F ield         | OpenFOAM: The Open Source CFD Toolbox           |
|  \\    /   O peration     | Version:  2112                                  |
|   \\  /    A nd           | Website:  www.openfoam.com                      |
|    \\/     M anipulation  |                                                 |
\*---------------------------------------------------------------------------*/
FoamFile
{
    version     2.0;
    format      ascii;
    arch        "LSB;label=32;scalar=64";
    class       surfaceScalarField;
    location    "680";
    object      phi;
}
// * * * * * * * * * * * * * * * * * * * * * * * * * * * * * * * * * * * * * //

dimensions      [1 0 -1 0 0 0 0];

oriented        oriented;

internalField   nonuniform List<scalar> 
95232
(
0.000103849
-0.000109726
5.8789e-06
0.000142051
-5.94172e-05
2.12165e-05
0.000182296
-3.94625e-05
-7.81602e-07
0.000211917
-2.81154e-05
-1.50575e-06
0.000246155
-2.22576e-05
-1.19813e-05
0.000269077
-2.61381e-05
3.21588e-06
0.000281432
-1.37985e-05
1.44159e-06
0.000260142
6.01919e-06
1.52688e-05
0.000219176
9.2927e-06
3.167e-05
0.000194535
3.80151e-05
-1.33732e-05
0.000140752
1.18889e-05
4.18939e-05
0.000187671
6.27059e-05
-0.000109623
0.000182165
1.68219e-05
-1.13133e-05
0.000118741
4.1813e-05
2.16103e-05
0.000109726
8.06663e-05
-7.1649e-05
3.95427e-11
0.000103849
5.87892e-06
-0.000109726
0.000103849
5.87893e-06
-0.000118741
8.06664e-05
-7.16489e-05
-0.000182165
4.1813e-05
2.16104e-05
-0.000187671
1.68219e-05
-1.13132e-05
-0.000140752
6.27059e-05
-0.000109623
-0.000194535
1.18889e-05
4.1894e-05
-0.000219176
3.80151e-05
-1.33732e-05
-0.000260142
9.29267e-06
3.167e-05
-0.000281432
6.01918e-06
1.52688e-05
-0.000269077
-1.37986e-05
1.44162e-06
-0.000246155
-2.61381e-05
3.21594e-06
-0.000211917
-2.22576e-05
-1.19813e-05
-0.000182296
-2.81155e-05
-1.50572e-06
-0.000142051
-3.94625e-05
-7.81535e-07
-0.000103849
-5.94171e-05
2.12165e-05
-0.000109726
5.87894e-06
8.06664e-05
-0.000118741
-7.16488e-05
6.95535e-05
-4.1116e-05
-7.18568e-06
6.38184e-05
-2.62525e-05
-7.47479e-06
5.16816e-05
-3.23877e-05
1.64084e-05
3.60025e-05
-3.26418e-05
2.60624e-05
1.18574e-05
-4.1641e-05
3.96474e-05
1.84484e-06
-4.0841e-05
3.70542e-05
-5.80471e-07
-2.68014e-05
3.52459e-05
1.5139e-05
-2.84335e-05
2.20069e-05
2.93995e-05
1.00624e-05
1.36931e-05
3.08344e-05
-1.65206e-05
2.69746e-05
6.49938e-05
3.08886e-05
-2.34073e-06
4.43642e-05
4.59863e-06
3.28527e-05
4.11159e-05
3.02516e-05
1.48099e-05
5.94171e-05
6.95535e-05
-7.18571e-06
4.40939e-12
0.000142051
2.12166e-05
-5.94172e-05
0.000142051
2.12166e-05
-4.11159e-05
6.95535e-05
-7.18569e-06
-4.43642e-05
3.02517e-05
1.48099e-05
-6.49938e-05
4.59861e-06
3.28527e-05
-3.08343e-05
3.08886e-05
-2.34074e-06
-2.93995e-05
-1.65206e-05
2.69746e-05
-1.51389e-05
1.00624e-05
1.36931e-05
5.80553e-07
-2.84335e-05
2.20069e-05
-1.84473e-06
-2.68014e-05
3.52459e-05
-1.18572e-05
-4.08411e-05
3.70543e-05
-3.60023e-05
-4.16411e-05
3.96474e-05
-5.16815e-05
-3.26418e-05
2.60625e-05
-6.38183e-05
-3.23877e-05
1.64084e-05
-6.95535e-05
-2.62525e-05
-7.47474e-06
-8.06664e-05
-4.11159e-05
-7.18578e-06
-0.000118741
-7.1649e-05
4.1813e-05
-0.000182165
2.16103e-05
3.02516e-05
-4.43642e-05
1.48099e-05
2.82424e-05
-2.15844e-05
-2.658e-06
2.19473e-05
-3.62781e-05
1.01857e-05
1.62892e-05
-3.38797e-05
6.89587e-06
8.11486e-06
-4.19623e-05
8.49547e-06
5.06667e-06
-5.22907e-05
1.44978e-05
1.28743e-05
-4.27103e-05
8.10141e-06
2.34717e-05
-4.44171e-05
5.38611e-06
3.12655e-05
-5.85414e-06
8.1226e-06
2.72465e-05
-2.87909e-05
1.62891e-05
3.90485e-05
2.13657e-05
-2.27937e-06
2.15844e-05
4.41248e-06
1.765e-05
2.62525e-05
2.82424e-05
-2.65799e-06
3.94625e-05
6.38183e-05
-7.47478e-06
-4.09708e-12
0.000182296
-7.81571e-07
-3.94625e-05
0.000182296
-7.81565e-07
-2.62525e-05
6.38183e-05
-7.47474e-06
-2.15845e-05
2.82424e-05
-2.65798e-06
-3.90485e-05
4.41246e-06
1.765e-05
-2.72465e-05
2.13657e-05
-2.27937e-06
-3.12655e-05
-2.8791e-05
1.62891e-05
-2.34717e-05
-5.85414e-06
8.12259e-06
-1.28743e-05
-4.44171e-05
5.38609e-06
-5.0667e-06
-4.27103e-05
8.10141e-06
-8.11488e-06
-5.22907e-05
1.44978e-05
-1.62893e-05
-4.19623e-05
8.49546e-06
-2.19474e-05
-3.38797e-05
6.89585e-06
-2.82424e-05
-3.62781e-05
1.01857e-05
-3.02517e-05
-2.15844e-05
-2.65799e-06
-4.1813e-05
-4.43642e-05
1.48099e-05
-0.000182165
2.16103e-05
1.68219e-05
-0.000187672
-1.13132e-05
4.59861e-06
-6.49938e-05
3.28527e-05
4.41248e-06
-3.90485e-05
1.765e-05
-1.06591e-05
-4.62548e-05
2.50485e-05
-5.02189e-06
-5.2721e-05
1.32043e-05
-1.37916e-05
-4.52836e-05
1.20913e-05
-8.43948e-06
-6.91156e-05
1.14729e-05
1.49448e-05
-4.73371e-05
-1.87569e-05
2.5011e-05
-5.37926e-05
-6.90598e-07
3.8514e-05
-1.69033e-05
-2.45373e-06
3.45657e-05
-3.61971e-05
1.13547e-05
4.62548e-05
8.24127e-06
1.43525e-06
3.62781e-05
-1.06591e-05
2.50485e-05
3.23877e-05
2.19473e-05
1.01857e-05
2.81154e-05
5.16816e-05
1.64084e-05
-5.44025e-13
0.000211917
-1.50573e-06
-2.81154e-05
0.000211917
-1.50571e-06
-3.23877e-05
5.16815e-05
1.64084e-05
-3.62781e-05
2.19474e-05
1.01857e-05
-4.62548e-05
-1.06591e-05
2.50485e-05
-3.45657e-05
8.24127e-06
1.43526e-06
-3.8514e-05
-3.61971e-05
1.13547e-05
-2.5011e-05
-1.69033e-05
-2.45372e-06
-1.49448e-05
-5.37927e-05
-6.90594e-07
8.4395e-06
-4.73371e-05
-1.87569e-05
1.37916e-05
-6.91156e-05
1.14729e-05
5.0219e-06
-4.52836e-05
1.20913e-05
1.06591e-05
-5.2721e-05
1.32043e-05
-4.41247e-06
-4.62548e-05
2.50486e-05
-4.5986e-06
-3.90485e-05
1.765e-05
-1.68219e-05
-6.49938e-05
3.28527e-05
-0.000187671
-1.13132e-05
6.27059e-05
-0.000140752
-0.000109623
3.08886e-05
-3.08344e-05
-2.34072e-06
2.13657e-05
-2.72465e-05
-2.27936e-06
8.24126e-06
-3.45657e-05
1.43525e-06
7.10852e-06
-5.17381e-05
1.49634e-07
-2.89542e-06
-3.63674e-05
1.08738e-06
3.78414e-06
-8.05312e-05
4.73556e-06
2.71403e-05
-3.42297e-05
-3.64636e-05
4.41434e-05
-6.36672e-05
-7.12921e-06
5.63511e-05
-2.11185e-05
-7.99271e-06
5.17381e-05
-3.09458e-05
-6.3859e-07
5.2721e-05
7.10853e-06
1.49629e-07
3.38797e-05
-5.02189e-06
1.32043e-05
3.26418e-05
1.62892e-05
6.89586e-06
2.22576e-05
3.60024e-05
2.60625e-05
-1.27755e-11
0.000246155
-1.19813e-05
-2.22576e-05
0.000246155
-1.19813e-05
-3.26418e-05
3.60024e-05
2.60625e-05
-3.38797e-05
1.62892e-05
6.89586e-06
-5.2721e-05
-5.0219e-06
1.32043e-05
-5.17381e-05
7.10853e-06
1.49627e-07
-5.63511e-05
-3.09458e-05
-6.38604e-07
-4.41434e-05
-2.11185e-05
-7.99271e-06
-2.71403e-05
-6.36672e-05
-7.12923e-06
-3.78414e-06
-3.42297e-05
-3.64636e-05
2.89542e-06
-8.05312e-05
4.73555e-06
-7.10853e-06
-3.63674e-05
1.08738e-06
-8.24128e-06
-5.17381e-05
1.49621e-07
-2.13657e-05
-3.45657e-05
1.43525e-06
-3.08887e-05
-2.72465e-05
-2.27938e-06
-6.27059e-05
-3.08344e-05
-2.34078e-06
-0.000140752
-0.000109623
1.18889e-05
-0.000194535
4.18939e-05
-1.65206e-05
-2.93995e-05
2.69745e-05
-2.87909e-05
-3.12655e-05
1.62892e-05
-3.61971e-05
-3.8514e-05
1.13547e-05
-3.09458e-05
-5.63511e-05
-6.38598e-07
-4.61263e-05
-3.47242e-05
1.35373e-05
-1.86679e-05
-9.3755e-05
-1.42341e-05
1.71237e-05
-2.10144e-05
-4.90068e-05
1.78657e-05
-7.29467e-05
8.53758e-06
3.47242e-05
-2.37152e-05
-1.42616e-05
3.63674e-05
-4.61263e-05
1.35373e-05
4.52836e-05
-2.89541e-06
1.08737e-06
4.19623e-05
-1.37916e-05
1.20913e-05
4.1641e-05
8.11487e-06
8.49545e-06
2.61381e-05
1.18573e-05
3.96474e-05
-1.11746e-11
0.000269077
3.2159e-06
-2.61381e-05
0.000269077
3.21591e-06
-4.1641e-05
1.18573e-05
3.96474e-05
-4.19623e-05
8.11487e-06
8.49547e-06
-4.52836e-05
-1.37916e-05
1.20913e-05
-3.63674e-05
-2.89542e-06
1.08738e-06
-3.47242e-05
-4.61263e-05
1.35373e-05
-1.78657e-05
-2.37152e-05
-1.42616e-05
-1.71237e-05
-7.29467e-05
8.53758e-06
1.86679e-05
-2.10144e-05
-4.90068e-05
4.61263e-05
-9.3755e-05
-1.42341e-05
3.09458e-05
-3.47242e-05
1.35373e-05
3.61971e-05
-5.63511e-05
-6.38597e-07
2.87909e-05
-3.8514e-05
1.13547e-05
1.65206e-05
-3.12655e-05
1.62891e-05
-1.18889e-05
-2.93995e-05
2.69746e-05
-0.000194535
4.1894e-05
3.80151e-05
-0.000219176
-1.33733e-05
1.00624e-05
-1.5139e-05
1.36931e-05
-5.85413e-06
-2.34717e-05
8.12261e-06
-1.69033e-05
-2.5011e-05
-2.45372e-06
-2.11185e-05
-4.41434e-05
-7.99271e-06
-2.37152e-05
-1.78657e-05
-1.42616e-05
-3.03132e-06
-6.10725e-05
-5.33662e-05
1.99052e-05
9.38979e-06
-5.33405e-05
6.10725e-05
-2.03956e-05
-9.37181e-05
9.3755e-05
-3.03132e-06
-5.33662e-05
8.05312e-05
-1.86679e-05
-1.42341e-05
6.91156e-05
3.78415e-06
4.73556e-06
5.22907e-05
-8.4395e-06
1.14729e-05
4.08411e-05
5.06668e-06
1.44978e-05
1.37986e-05
1.84477e-06
3.70543e-05
-5.21666e-12
0.000281432
1.4416e-06
-1.37986e-05
0.000281432
1.4416e-06
-4.08411e-05
1.84478e-06
3.70543e-05
-5.22907e-05
5.06666e-06
1.44978e-05
-6.91156e-05
-8.4395e-06
1.14729e-05
-8.05312e-05
3.78414e-06
4.73555e-06
-9.3755e-05
-1.86679e-05
-1.42341e-05
-6.10725e-05
-3.03132e-06
-5.33663e-05
-1.99052e-05
-2.03956e-05
-9.37181e-05
3.03133e-06
9.3898e-06
-5.33405e-05
2.37152e-05
-6.10725e-05
-5.33662e-05
2.11185e-05
-1.78657e-05
-1.42616e-05
1.69033e-05
-4.41434e-05
-7.99271e-06
5.85413e-06
-2.5011e-05
-2.45372e-06
-1.00624e-05
-2.34717e-05
8.12259e-06
-3.80151e-05
-1.5139e-05
1.36931e-05
-0.000219176
-1.33732e-05
9.29269e-06
-0.000260142
3.16701e-05
-2.84335e-05
5.80455e-07
2.20069e-05
-4.44171e-05
-1.28743e-05
5.3861e-06
-5.37927e-05
-1.49449e-05
-6.9062e-07
-6.36672e-05
-2.71403e-05
-7.12923e-06
-7.29467e-05
-1.71237e-05
8.53757e-06
-2.03956e-05
-1.99052e-05
-9.37181e-05
-4.22647e-06
4.22647e-06
-1.10061e-05
-9.38979e-06
-4.22647e-06
-1.10061e-05
2.10144e-05
1.99052e-05
-5.33406e-05
3.42297e-05
1.71237e-05
-4.90068e-05
4.73371e-05
2.71403e-05
-3.64637e-05
4.27103e-05
1.49448e-05
-1.87569e-05
2.68014e-05
1.28743e-05
8.10141e-06
-6.01919e-06
-5.80519e-07
3.52459e-05
-1.37853e-11
0.000260142
1.52687e-05
6.01917e-06
0.000260142
1.52688e-05
-2.68014e-05
-5.80505e-07
3.52459e-05
-4.27103e-05
1.28743e-05
8.10142e-06
-4.73371e-05
1.49448e-05
-1.87569e-05
-3.42297e-05
2.71403e-05
-3.64636e-05
-2.10144e-05
1.71237e-05
-4.90068e-05
9.38978e-06
1.99052e-05
-5.33405e-05
4.22648e-06
-4.22647e-06
-1.10061e-05
2.03956e-05
4.22648e-06
-1.10061e-05
7.29467e-05
-1.99052e-05
-9.37181e-05
6.36672e-05
-1.71237e-05
8.53759e-06
5.37927e-05
-2.71403e-05
-7.12923e-06
4.44171e-05
-1.49448e-05
-6.90587e-07
2.84335e-05
-1.28743e-05
5.38608e-06
-9.29269e-06
5.80544e-07
2.20069e-05
-0.000260142
3.16701e-05
6.01919e-06
-0.000281432
1.52688e-05
-2.68014e-05
-1.84487e-06
3.52459e-05
-4.27103e-05
-5.06665e-06
8.10143e-06
-4.73371e-05
8.43947e-06
-1.87569e-05
-3.42297e-05
-3.78413e-06
-3.64636e-05
-2.10144e-05
1.86679e-05
-4.90068e-05
9.38979e-06
3.03133e-06
-5.33405e-05
4.22649e-06
2.03956e-05
-1.10061e-05
2.03956e-05
-9.38979e-06
-1.10061e-05
7.29467e-05
6.10725e-05
-9.37181e-05
6.36672e-05
1.78657e-05
8.53758e-06
5.37927e-05
4.41434e-05
-7.12922e-06
4.44171e-05
2.5011e-05
-6.90581e-07
2.84335e-05
2.34717e-05
5.38611e-06
-9.29271e-06
1.5139e-05
2.20069e-05
1.01672e-11
0.000219176
3.16701e-05
9.29274e-06
0.000219176
3.16701e-05
-2.84335e-05
1.5139e-05
2.20069e-05
-4.44171e-05
2.34717e-05
5.38611e-06
-5.37927e-05
2.5011e-05
-6.90595e-07
-6.36672e-05
4.41434e-05
-7.12922e-06
-7.29467e-05
1.78657e-05
8.53758e-06
-2.03956e-05
6.10725e-05
-9.37181e-05
-4.22648e-06
-9.38979e-06
-1.10061e-05
-9.38979e-06
2.03956e-05
-1.10061e-05
2.10144e-05
3.03132e-06
-5.33406e-05
3.42297e-05
1.86679e-05
-4.90068e-05
4.73371e-05
-3.78415e-06
-3.64636e-05
4.27103e-05
8.4395e-06
-1.87569e-05
2.68014e-05
-5.06669e-06
8.10141e-06
-6.01915e-06
-1.84475e-06
3.52459e-05
-0.000281432
1.52688e-05
-1.37985e-05
-0.000269077
1.44156e-06
-4.08411e-05
-1.18574e-05
3.70542e-05
-5.22907e-05
-8.11484e-06
1.44978e-05
-6.91156e-05
1.37916e-05
1.14728e-05
-8.05312e-05
2.89544e-06
4.73556e-06
-9.3755e-05
4.61263e-05
-1.42342e-05
-6.10725e-05
2.37152e-05
-5.33662e-05
-1.99052e-05
7.29467e-05
-9.37181e-05
3.03132e-06
2.10144e-05
-5.33405e-05
2.37152e-05
9.3755e-05
-5.33662e-05
2.11185e-05
3.47242e-05
-1.42616e-05
1.69033e-05
5.63511e-05
-7.99272e-06
5.85413e-06
3.8514e-05
-2.45373e-06
-1.00624e-05
3.12655e-05
8.12259e-06
-3.80151e-05
2.93995e-05
1.36931e-05
1.56129e-11
0.000194535
-1.33732e-05
3.80151e-05
0.000194535
-1.33732e-05
1.00624e-05
2.93995e-05
1.36931e-05
-5.85412e-06
3.12655e-05
8.1226e-06
-1.69033e-05
3.8514e-05
-2.45372e-06
-2.11185e-05
5.63511e-05
-7.9927e-06
-2.37152e-05
3.47242e-05
-1.42616e-05
-3.03132e-06
9.3755e-05
-5.33662e-05
1.99052e-05
2.10144e-05
-5.33405e-05
6.10725e-05
7.29467e-05
-9.37181e-05
9.3755e-05
2.37152e-05
-5.33662e-05
8.05312e-05
4.61263e-05
-1.42341e-05
6.91156e-05
2.89542e-06
4.73554e-06
5.22907e-05
1.37916e-05
1.14729e-05
4.08411e-05
-8.11489e-06
1.44977e-05
1.37986e-05
-1.18572e-05
3.70543e-05
-0.000269077
1.44161e-06
-2.61381e-05
-0.000246155
3.21592e-06
-4.1641e-05
-3.60025e-05
3.96474e-05
-4.19623e-05
-1.62892e-05
8.49549e-06
-4.52836e-05
5.02188e-06
1.20913e-05
-3.63674e-05
-7.10851e-06
1.08741e-06
-3.47242e-05
3.09458e-05
1.35373e-05
-1.78657e-05
2.11185e-05
-1.42616e-05
-1.71237e-05
6.36672e-05
8.53758e-06
1.86679e-05
3.42297e-05
-4.90068e-05
4.61263e-05
8.05312e-05
-1.42341e-05
3.09458e-05
3.63674e-05
1.35373e-05
3.61971e-05
5.17381e-05
-6.38596e-07
2.87909e-05
3.45657e-05
1.13547e-05
1.65206e-05
2.72465e-05
1.62891e-05
-1.18889e-05
3.08343e-05
2.69746e-05
3.2571e-13
0.000140752
4.18939e-05
1.18889e-05
0.000140752
4.18939e-05
-1.65206e-05
3.08343e-05
2.69746e-05
-2.87909e-05
2.72465e-05
1.62891e-05
-3.61971e-05
3.45657e-05
1.13547e-05
-3.09458e-05
5.17381e-05
-6.38607e-07
-4.61263e-05
3.63674e-05
1.35373e-05
-1.86679e-05
8.05312e-05
-1.42341e-05
1.71237e-05
3.42297e-05
-4.90068e-05
1.78657e-05
6.36672e-05
8.53759e-06
3.47242e-05
2.11185e-05
-1.42616e-05
3.63674e-05
3.09458e-05
1.35373e-05
4.52836e-05
-7.10853e-06
1.08736e-06
4.19623e-05
5.0219e-06
1.20913e-05
4.16411e-05
-1.62893e-05
8.49544e-06
2.61381e-05
-3.60024e-05
3.96474e-05
-0.000246155
3.2159e-06
-2.22576e-05
-0.000211917
-1.19813e-05
-3.26418e-05
-5.16816e-05
2.60624e-05
-3.38797e-05
-2.19473e-05
6.89588e-06
-5.2721e-05
1.06591e-05
1.32043e-05
-5.17381e-05
-8.24124e-06
1.49639e-07
-5.63511e-05
3.61971e-05
-6.38614e-07
-4.41434e-05
1.69033e-05
-7.9927e-06
-2.71403e-05
5.37927e-05
-7.12923e-06
-3.78415e-06
4.73371e-05
-3.64636e-05
2.89542e-06
6.91156e-05
4.73555e-06
-7.10853e-06
4.52836e-05
1.08738e-06
-8.24128e-06
5.2721e-05
1.49623e-07
-2.13657e-05
4.62548e-05
1.43526e-06
-3.08887e-05
3.90485e-05
-2.27937e-06
-6.27059e-05
6.49938e-05
-2.3407e-06
1.29353e-11
0.000187671
-0.000109623
6.27059e-05
0.000187671
-0.000109623
3.08886e-05
6.49938e-05
-2.34073e-06
2.13657e-05
3.90485e-05
-2.27934e-06
8.24127e-06
4.62548e-05
1.43526e-06
7.10853e-06
5.2721e-05
1.49639e-07
-2.89542e-06
4.52836e-05
1.08738e-06
3.78414e-06
6.91156e-05
4.73556e-06
2.71403e-05
4.73371e-05
-3.64636e-05
4.41434e-05
5.37927e-05
-7.12921e-06
5.63511e-05
1.69033e-05
-7.99273e-06
5.17381e-05
3.61971e-05
-6.38584e-07
5.2721e-05
-8.24126e-06
1.49612e-07
3.38797e-05
1.06591e-05
1.32043e-05
3.26418e-05
-2.19474e-05
6.89583e-06
2.22576e-05
-5.16816e-05
2.60625e-05
-0.000211917
-1.19813e-05
-2.81155e-05
-0.000182296
-1.50574e-06
-3.23877e-05
-6.38184e-05
1.64084e-05
-3.62781e-05
-2.82424e-05
1.01857e-05
-4.62548e-05
-4.4125e-06
2.50485e-05
-3.45657e-05
-2.13657e-05
1.43528e-06
-3.8514e-05
2.87909e-05
1.13547e-05
-2.5011e-05
5.85415e-06
-2.45371e-06
-1.49448e-05
4.44171e-05
-6.90602e-07
8.43951e-06
4.27103e-05
-1.87569e-05
1.37916e-05
5.22907e-05
1.14729e-05
5.02189e-06
4.19623e-05
1.20913e-05
1.06591e-05
3.38797e-05
1.32043e-05
-4.4125e-06
3.62781e-05
2.50485e-05
-4.59867e-06
2.15844e-05
1.765e-05
-1.6822e-05
4.43642e-05
3.28526e-05
1.78212e-11
0.000182165
-1.13134e-05
1.6822e-05
0.000182165
-1.13134e-05
4.59867e-06
4.43642e-05
3.28526e-05
4.41251e-06
2.15844e-05
1.765e-05
-1.06591e-05
3.62781e-05
2.50485e-05
-5.02188e-06
3.38797e-05
1.32043e-05
-1.37916e-05
4.19623e-05
1.20913e-05
-8.43949e-06
5.22907e-05
1.14729e-05
1.49448e-05
4.27103e-05
-1.87569e-05
2.5011e-05
4.44171e-05
-6.90594e-07
3.8514e-05
5.85413e-06
-2.45374e-06
3.45657e-05
2.87909e-05
1.13547e-05
4.62548e-05
-2.13657e-05
1.43523e-06
3.62782e-05
-4.41248e-06
2.50486e-05
3.23877e-05
-2.82424e-05
1.01857e-05
2.81154e-05
-6.38183e-05
1.64084e-05
-0.000182296
-1.5057e-06
-3.94626e-05
-0.000142051
-7.81615e-07
-2.62524e-05
-6.95535e-05
-7.47481e-06
-2.15844e-05
-3.02517e-05
-2.65798e-06
-3.90485e-05
-4.59864e-06
1.765e-05
-2.72465e-05
-3.08886e-05
-2.27933e-06
-3.12655e-05
1.65206e-05
1.62891e-05
-2.34717e-05
-1.00624e-05
8.1226e-06
-1.28743e-05
2.84335e-05
5.38611e-06
-5.0667e-06
2.68014e-05
8.1014e-06
-8.1149e-06
4.08411e-05
1.44978e-05
-1.62893e-05
4.16411e-05
8.49546e-06
-2.19474e-05
3.26418e-05
6.89586e-06
-2.82424e-05
3.23877e-05
1.01857e-05
-3.02517e-05
2.62525e-05
-2.65796e-06
-4.1813e-05
4.11159e-05
1.48099e-05
1.67045e-11
0.000118741
2.16104e-05
4.1813e-05
0.000118741
2.16104e-05
3.02516e-05
4.1116e-05
1.48099e-05
2.82424e-05
2.62525e-05
-2.65797e-06
2.19473e-05
3.23877e-05
1.01857e-05
1.62892e-05
3.26418e-05
6.89588e-06
8.11484e-06
4.16411e-05
8.49547e-06
5.06666e-06
4.08411e-05
1.44978e-05
1.28743e-05
2.68014e-05
8.10141e-06
2.34717e-05
2.84335e-05
5.38612e-06
3.12655e-05
-1.00624e-05
8.1226e-06
2.72465e-05
1.65206e-05
1.62892e-05
3.90485e-05
-3.08886e-05
-2.27939e-06
2.15845e-05
-4.59863e-06
1.765e-05
2.62525e-05
-3.02516e-05
-2.65802e-06
3.94625e-05
-6.95535e-05
-7.47472e-06
-0.000142051
-7.81535e-07
-5.94172e-05
-0.000103849
2.12166e-05
-4.11159e-05
-8.06664e-05
-7.18585e-06
-4.43642e-05
-4.1813e-05
1.48099e-05
-6.49938e-05
-1.68219e-05
3.28526e-05
-3.08343e-05
-6.27059e-05
-2.34072e-06
-2.93995e-05
-1.18889e-05
2.69746e-05
-1.51389e-05
-3.80151e-05
1.36931e-05
5.80562e-07
-9.2927e-06
2.20069e-05
-1.8447e-06
-6.01918e-06
3.52459e-05
-1.18572e-05
1.37986e-05
3.70543e-05
-3.60023e-05
2.61381e-05
3.96474e-05
-5.16815e-05
2.22576e-05
2.60625e-05
-6.38183e-05
2.81155e-05
1.64084e-05
-6.95535e-05
3.94625e-05
-7.47476e-06
-8.06664e-05
5.94172e-05
-7.18576e-06
4.1576e-11
0.000109726
-7.16489e-05
8.06664e-05
0.000109726
-7.1649e-05
6.95535e-05
5.94172e-05
-7.18568e-06
6.38184e-05
3.94625e-05
-7.47477e-06
5.16816e-05
2.81155e-05
1.64084e-05
3.60025e-05
2.22576e-05
2.60624e-05
1.18574e-05
2.61381e-05
3.96474e-05
1.84485e-06
1.37986e-05
3.70542e-05
-5.80448e-07
-6.01918e-06
3.52459e-05
1.5139e-05
-9.29274e-06
2.20069e-05
2.93996e-05
-3.80151e-05
1.3693e-05
3.08344e-05
-1.18889e-05
2.69746e-05
6.49938e-05
-6.27058e-05
-2.34075e-06
4.43642e-05
-1.68219e-05
3.28527e-05
4.1116e-05
-4.18129e-05
1.48099e-05
5.94171e-05
-8.06663e-05
-7.18563e-06
-0.000103849
2.12166e-05
-0.000109725
-9.29568e-11
5.87889e-06
-0.000118741
2.14424e-11
-7.1649e-05
-0.000182165
-1.81232e-11
2.16104e-05
-0.000187671
3.07678e-11
-1.13132e-05
-0.000140752
-6.86325e-11
-0.000109623
-0.000194535
1.47317e-11
4.1894e-05
-0.000219176
-2.11137e-12
-1.33732e-05
-0.000260142
3.06046e-11
3.16701e-05
-0.000281432
1.25471e-11
1.52687e-05
-0.000269077
4.41869e-11
1.44162e-06
-0.000246155
2.20755e-11
3.21595e-06
-0.000211917
3.01382e-11
-1.19812e-05
-0.000182296
3.55615e-11
-1.5057e-06
-0.000142051
2.53815e-11
-7.81536e-07
-0.000103849
2.11702e-11
2.12166e-05
6.22228e-11
-2.11792e-10
5.87891e-06
0.000103849
-1.31893e-10
5.87885e-06
0.000142051
2.52025e-10
2.12165e-05
0.000182296
8.82893e-11
-7.81624e-07
0.000211917
-6.35081e-11
-1.50569e-06
0.000246155
-1.42422e-10
-1.19812e-05
0.000269077
-6.57105e-11
3.21588e-06
0.000281432
-3.93876e-11
1.44151e-06
0.000260142
-1.11363e-11
1.52687e-05
0.000219176
-5.33706e-11
3.16701e-05
0.000194535
4.47175e-12
-1.33732e-05
0.000140752
-3.70704e-11
4.18939e-05
0.000187672
5.83849e-12
-0.000109623
0.000182165
-2.24816e-11
-1.13133e-05
0.000118741
2.31117e-13
2.16103e-05
0.000109726
-4.00268e-12
-7.16491e-05
5.14152e-11
5.87893e-06
-0.000109726
0.000103849
5.87887e-06
-0.000118741
8.06664e-05
-7.1649e-05
-0.000182165
4.1813e-05
2.16104e-05
-0.000187672
1.6822e-05
-1.13134e-05
-0.000140752
6.27059e-05
-0.000109623
-0.000194535
1.18889e-05
4.18939e-05
-0.000219176
3.80152e-05
-1.33732e-05
-0.000260142
9.29276e-06
3.167e-05
-0.000281432
6.01919e-06
1.52687e-05
-0.000269077
-1.37985e-05
1.44158e-06
-0.000246155
-2.61381e-05
3.21593e-06
-0.000211917
-2.22576e-05
-1.19813e-05
-0.000182296
-2.81154e-05
-1.50573e-06
-0.000142051
-3.94625e-05
-7.81596e-07
-0.000103849
-5.94171e-05
2.12165e-05
9.79012e-11
-0.000109726
5.87887e-06
0.000103849
-0.000109726
5.87911e-06
0.000142051
-5.94169e-05
2.12166e-05
0.000182296
-3.94624e-05
-7.81681e-07
0.000211917
-2.81154e-05
-1.5057e-06
0.000246155
-2.22577e-05
-1.19812e-05
0.000269077
-2.61382e-05
3.21592e-06
0.000281432
-1.37986e-05
1.44149e-06
0.000260142
6.01919e-06
1.52686e-05
0.000219176
9.29264e-06
3.16701e-05
0.000194535
3.80151e-05
-1.33731e-05
0.000140752
1.18889e-05
4.18939e-05
0.000187672
6.27058e-05
-0.000109623
0.000182165
1.68219e-05
-1.13132e-05
0.000118741
4.1813e-05
2.16103e-05
0.000109726
8.06663e-05
-7.16489e-05
0.000103849
5.87894e-06
-5.94171e-05
0.000142051
2.12166e-05
-4.1116e-05
6.95535e-05
-7.18565e-06
-4.43642e-05
3.02516e-05
1.48099e-05
-6.49938e-05
4.59866e-06
3.28527e-05
-3.08344e-05
3.08886e-05
-2.34068e-06
-2.93996e-05
-1.65205e-05
2.69746e-05
-1.5139e-05
1.00624e-05
1.36931e-05
5.80469e-07
-2.84335e-05
2.20069e-05
-1.84482e-06
-2.68014e-05
3.52459e-05
-1.18573e-05
-4.08411e-05
3.70542e-05
-3.60024e-05
-4.16411e-05
3.96473e-05
-5.16815e-05
-3.26418e-05
2.60624e-05
-6.38182e-05
-3.23877e-05
1.64084e-05
-6.95533e-05
-2.62524e-05
-7.47474e-06
-8.0666e-05
-4.1116e-05
-7.18575e-06
-9.84961e-11
-0.000118741
-7.16492e-05
8.06662e-05
-0.000118741
-7.16491e-05
6.95538e-05
-4.11161e-05
-7.18553e-06
6.38185e-05
-2.62524e-05
-7.47459e-06
5.16817e-05
-3.23877e-05
1.64084e-05
3.60024e-05
-3.26418e-05
2.60624e-05
1.18573e-05
-4.16411e-05
3.96474e-05
1.84473e-06
-4.08411e-05
3.70543e-05
-5.80547e-07
-2.68014e-05
3.52459e-05
1.51389e-05
-2.84336e-05
2.20069e-05
2.93995e-05
1.00624e-05
1.36931e-05
3.08344e-05
-1.65206e-05
2.69745e-05
6.49938e-05
3.08886e-05
-2.34075e-06
4.43642e-05
4.59862e-06
3.28527e-05
4.1116e-05
3.02517e-05
1.48098e-05
5.94172e-05
6.95534e-05
-7.1858e-06
0.000142051
2.12166e-05
-3.94624e-05
0.000182296
-7.81557e-07
-2.62524e-05
6.38184e-05
-7.47475e-06
-2.15844e-05
2.82423e-05
-2.65802e-06
-3.90485e-05
4.4125e-06
1.765e-05
-2.72465e-05
2.13657e-05
-2.27937e-06
-3.12655e-05
-2.87909e-05
1.62892e-05
-2.34717e-05
-5.85413e-06
8.12259e-06
-1.28743e-05
-4.44171e-05
5.38614e-06
-5.06669e-06
-4.27103e-05
8.10142e-06
-8.11488e-06
-5.22907e-05
1.44978e-05
-1.62893e-05
-4.19623e-05
8.49547e-06
-2.19474e-05
-3.38797e-05
6.89589e-06
-2.82425e-05
-3.62782e-05
1.01857e-05
-3.02517e-05
-2.15844e-05
-2.65799e-06
-4.18131e-05
-4.43642e-05
1.48099e-05
6.03592e-11
-0.000182165
2.16104e-05
4.18131e-05
-0.000182165
2.16104e-05
3.02517e-05
-4.43643e-05
1.48098e-05
2.82424e-05
-2.15844e-05
-2.65798e-06
2.19474e-05
-3.62781e-05
1.01857e-05
1.62893e-05
-3.38797e-05
6.89586e-06
8.11488e-06
-4.19623e-05
8.49545e-06
5.0667e-06
-5.22907e-05
1.44977e-05
1.28743e-05
-4.27103e-05
8.10141e-06
2.34717e-05
-4.44171e-05
5.3861e-06
3.12655e-05
-5.85413e-06
8.12259e-06
2.72465e-05
-2.8791e-05
1.62891e-05
3.90485e-05
2.13657e-05
-2.27936e-06
2.15845e-05
4.41247e-06
1.765e-05
2.62525e-05
2.82424e-05
-2.65797e-06
3.94625e-05
6.38183e-05
-7.47479e-06
0.000182296
-7.8152e-07
-2.81154e-05
0.000211917
-1.50574e-06
-3.23877e-05
5.16816e-05
1.64084e-05
-3.62781e-05
2.19473e-05
1.01857e-05
-4.62548e-05
-1.06591e-05
2.50486e-05
-3.45657e-05
8.24126e-06
1.43525e-06
-3.8514e-05
-3.61971e-05
1.13547e-05
-2.5011e-05
-1.69033e-05
-2.45374e-06
-1.49448e-05
-5.37926e-05
-6.9058e-07
8.43949e-06
-4.73371e-05
-1.87569e-05
1.37916e-05
-6.91156e-05
1.14729e-05
5.0219e-06
-4.52836e-05
1.20913e-05
1.06591e-05
-5.2721e-05
1.32043e-05
-4.41245e-06
-4.62548e-05
2.50485e-05
-4.59859e-06
-3.90485e-05
1.765e-05
-1.68219e-05
-6.49938e-05
3.28527e-05
5.81064e-11
-0.000187671
-1.13133e-05
1.68219e-05
-0.000187672
-1.13131e-05
4.59852e-06
-6.49938e-05
3.28527e-05
4.41245e-06
-3.90485e-05
1.765e-05
-1.06591e-05
-4.62548e-05
2.50486e-05
-5.02191e-06
-5.2721e-05
1.32043e-05
-1.37916e-05
-4.52836e-05
1.20913e-05
-8.4395e-06
-6.91156e-05
1.14729e-05
1.49448e-05
-4.73371e-05
-1.87569e-05
2.5011e-05
-5.37927e-05
-6.90595e-07
3.8514e-05
-1.69033e-05
-2.45372e-06
3.45657e-05
-3.61971e-05
1.13547e-05
4.62548e-05
8.24126e-06
1.43525e-06
3.62781e-05
-1.06591e-05
2.50485e-05
3.23877e-05
2.19473e-05
1.01857e-05
2.81154e-05
5.16815e-05
1.64084e-05
0.000211917
-1.50569e-06
-2.22576e-05
0.000246155
-1.19813e-05
-3.26418e-05
3.60025e-05
2.60625e-05
-3.38797e-05
1.62892e-05
6.89585e-06
-5.2721e-05
-5.02189e-06
1.32043e-05
-5.17381e-05
7.10852e-06
1.49628e-07
-5.63511e-05
-3.09458e-05
-6.3858e-07
-4.41434e-05
-2.11185e-05
-7.99271e-06
-2.71403e-05
-6.36672e-05
-7.1292e-06
-3.78414e-06
-3.42297e-05
-3.64637e-05
2.89543e-06
-8.05312e-05
4.73557e-06
-7.10853e-06
-3.63674e-05
1.08739e-06
-8.24127e-06
-5.17381e-05
1.49637e-07
-2.13657e-05
-3.45657e-05
1.43527e-06
-3.08887e-05
-2.72465e-05
-2.27936e-06
-6.2706e-05
-3.08344e-05
-2.34076e-06
-1.07183e-10
-0.000140752
-0.000109623
6.27059e-05
-0.000140752
-0.000109623
3.08887e-05
-3.08344e-05
-2.34075e-06
2.13657e-05
-2.72465e-05
-2.27937e-06
8.2413e-06
-3.45657e-05
1.43526e-06
7.10854e-06
-5.17381e-05
1.49623e-07
-2.89541e-06
-3.63674e-05
1.08738e-06
3.78415e-06
-8.05312e-05
4.73555e-06
2.71403e-05
-3.42297e-05
-3.64636e-05
4.41434e-05
-6.36672e-05
-7.12924e-06
5.63511e-05
-2.11185e-05
-7.99271e-06
5.17381e-05
-3.09458e-05
-6.38616e-07
5.2721e-05
7.10852e-06
1.49633e-07
3.38797e-05
-5.0219e-06
1.32043e-05
3.26418e-05
1.62892e-05
6.89588e-06
2.22576e-05
3.60023e-05
2.60624e-05
0.000246155
-1.19813e-05
-2.61381e-05
0.000269077
3.21588e-06
-4.1641e-05
1.18573e-05
3.96474e-05
-4.19623e-05
8.11487e-06
8.49545e-06
-4.52836e-05
-1.37916e-05
1.20913e-05
-3.63674e-05
-2.89542e-06
1.08737e-06
-3.47242e-05
-4.61263e-05
1.35373e-05
-1.78657e-05
-2.37152e-05
-1.42616e-05
-1.71237e-05
-7.29467e-05
8.53759e-06
1.86679e-05
-2.10144e-05
-4.90068e-05
4.61263e-05
-9.3755e-05
-1.42341e-05
3.09458e-05
-3.47242e-05
1.35373e-05
3.61971e-05
-5.63511e-05
-6.386e-07
2.87909e-05
-3.8514e-05
1.13547e-05
1.65206e-05
-3.12655e-05
1.62891e-05
-1.18889e-05
-2.93995e-05
2.69746e-05
6.13174e-12
-0.000194535
4.1894e-05
1.18889e-05
-0.000194535
4.18939e-05
-1.65206e-05
-2.93995e-05
2.69746e-05
-2.8791e-05
-3.12655e-05
1.62891e-05
-3.61971e-05
-3.8514e-05
1.13547e-05
-3.09458e-05
-5.63511e-05
-6.386e-07
-4.61263e-05
-3.47242e-05
1.35373e-05
-1.86679e-05
-9.3755e-05
-1.42341e-05
1.71237e-05
-2.10144e-05
-4.90068e-05
1.78657e-05
-7.29467e-05
8.53758e-06
3.47242e-05
-2.37152e-05
-1.42616e-05
3.63674e-05
-4.61263e-05
1.35373e-05
4.52836e-05
-2.89543e-06
1.08739e-06
4.19623e-05
-1.37916e-05
1.20913e-05
4.1641e-05
8.11486e-06
8.49547e-06
2.61381e-05
1.18573e-05
3.96474e-05
0.000269077
3.21593e-06
-1.37985e-05
0.000281432
1.44159e-06
-4.08411e-05
1.84481e-06
3.70543e-05
-5.22907e-05
5.06668e-06
1.44978e-05
-6.91156e-05
-8.43949e-06
1.14729e-05
-8.05312e-05
3.78414e-06
4.73556e-06
-9.3755e-05
-1.86679e-05
-1.42341e-05
-6.10725e-05
-3.03132e-06
-5.33662e-05
-1.99052e-05
-2.03956e-05
-9.37181e-05
3.03132e-06
9.38978e-06
-5.33405e-05
2.37152e-05
-6.10725e-05
-5.33662e-05
2.11185e-05
-1.78657e-05
-1.42616e-05
1.69033e-05
-4.41433e-05
-7.9927e-06
5.85413e-06
-2.5011e-05
-2.45372e-06
-1.00624e-05
-2.34717e-05
8.12261e-06
-3.80151e-05
-1.5139e-05
1.36931e-05
1.21524e-11
-0.000219176
-1.33732e-05
3.80151e-05
-0.000219176
-1.33732e-05
1.00624e-05
-1.5139e-05
1.36931e-05
-5.85413e-06
-2.34717e-05
8.12259e-06
-1.69033e-05
-2.5011e-05
-2.45372e-06
-2.11185e-05
-4.41434e-05
-7.99272e-06
-2.37152e-05
-1.78657e-05
-1.42616e-05
-3.03132e-06
-6.10725e-05
-5.33662e-05
1.99052e-05
9.38979e-06
-5.33405e-05
6.10725e-05
-2.03956e-05
-9.37181e-05
9.3755e-05
-3.03132e-06
-5.33662e-05
8.05312e-05
-1.86679e-05
-1.42341e-05
6.91156e-05
3.78414e-06
4.73556e-06
5.22907e-05
-8.4395e-06
1.14729e-05
4.08411e-05
5.06668e-06
1.44978e-05
1.37986e-05
1.84475e-06
3.70543e-05
0.000281432
1.44161e-06
6.01918e-06
0.000260142
1.52688e-05
-2.68014e-05
-5.80497e-07
3.52459e-05
-4.27103e-05
1.28743e-05
8.10141e-06
-4.73371e-05
1.49448e-05
-1.87569e-05
-3.42297e-05
2.71403e-05
-3.64637e-05
-2.10144e-05
1.71237e-05
-4.90068e-05
9.38978e-06
1.99052e-05
-5.33405e-05
4.22645e-06
-4.22646e-06
-1.10061e-05
2.03956e-05
4.22646e-06
-1.10061e-05
7.29467e-05
-1.99052e-05
-9.37181e-05
6.36672e-05
-1.71237e-05
8.53757e-06
5.37926e-05
-2.71403e-05
-7.12922e-06
4.44171e-05
-1.49448e-05
-6.90607e-07
2.84335e-05
-1.28743e-05
5.38611e-06
-9.29273e-06
5.80493e-07
2.20069e-05
-2.59489e-11
-0.000260142
3.16701e-05
9.2927e-06
-0.000260142
3.167e-05
-2.84335e-05
5.80513e-07
2.20069e-05
-4.44171e-05
-1.28743e-05
5.3861e-06
-5.37927e-05
-1.49448e-05
-6.90592e-07
-6.36672e-05
-2.71403e-05
-7.12922e-06
-7.29467e-05
-1.71237e-05
8.53758e-06
-2.03956e-05
-1.99052e-05
-9.37181e-05
-4.22646e-06
4.22646e-06
-1.10061e-05
-9.38978e-06
-4.22646e-06
-1.10061e-05
2.10144e-05
1.99052e-05
-5.33405e-05
3.42297e-05
1.71237e-05
-4.90068e-05
4.73371e-05
2.71403e-05
-3.64636e-05
4.27103e-05
1.49448e-05
-1.87569e-05
2.68014e-05
1.28743e-05
8.10142e-06
-6.01917e-06
-5.80523e-07
3.52459e-05
0.000260142
1.52688e-05
9.29271e-06
0.000219176
3.16701e-05
-2.84335e-05
1.5139e-05
2.20069e-05
-4.44171e-05
2.34717e-05
5.38612e-06
-5.37927e-05
2.5011e-05
-6.90589e-07
-6.36672e-05
4.41434e-05
-7.12921e-06
-7.29467e-05
1.78657e-05
8.5376e-06
-2.03956e-05
6.10725e-05
-9.37181e-05
-4.22646e-06
-9.38979e-06
-1.10061e-05
-9.38979e-06
2.03956e-05
-1.10061e-05
2.10144e-05
3.03132e-06
-5.33405e-05
3.42297e-05
1.86679e-05
-4.90068e-05
4.73371e-05
-3.78414e-06
-3.64636e-05
4.27103e-05
8.43949e-06
-1.87569e-05
2.68014e-05
-5.06667e-06
8.10142e-06
-6.01919e-06
-1.8448e-06
3.52459e-05
-8.06198e-13
-0.000281432
1.52688e-05
6.01917e-06
-0.000281432
1.52688e-05
-2.68014e-05
-1.84479e-06
3.52459e-05
-4.27103e-05
-5.06669e-06
8.10141e-06
-4.73371e-05
8.43949e-06
-1.87569e-05
-3.42297e-05
-3.78414e-06
-3.64636e-05