/*--------------------------------*- C++ -*----------------------------------*\
| =========                 |                                                 |
| \\      /  F ield         | OpenFOAM: The Open Source CFD Toolbox           |
|  \\    /   O peration     | Version:  2112                                  |
|   \\  /    A nd           | Website:  www.openfoam.com                      |
|    \\/     M anipulation  |                                                 |
\*---------------------------------------------------------------------------*/
FoamFile
{
    version     2.0;
    format      ascii;
    arch        "LSB;label=32;scalar=64";
    class       volVectorField;
    location    "680";
    object      U;
}
// * * * * * * * * * * * * * * * * * * * * * * * * * * * * * * * * * * * * * //

dimensions      [0 1 -1 0 0 0 0];

internalField   nonuniform List<vector> 
32768
(
(0.00184515 -0.00237845 -0.000156339)
(0.00354212 -0.00136159 -0.000344143)
(0.00382681 -0.000832951 -0.000791126)
(0.00562979 -0.000289407 -0.000834186)
(0.00536342 6.67146e-06 -0.000364267)
(0.00740594 6.28165e-06 -9.0653e-05)
(0.00655254 0.00030979 6.21442e-05)
(0.00804694 0.000751412 0.000588162)
(0.00544819 0.00109328 0.000353236)
(0.00592192 0.00148444 6.04055e-05)
(0.00416984 0.000830518 -0.000261253)
(0.00313187 0.00217998 -0.00157002)
(0.00660386 0.000721837 -9.48288e-05)
(0.00284611 0.000900814 -0.000321583)
(0.00331376 0.00196191 -0.00122067)
(0.00237846 0.00184515 -0.000156336)
(-0.00237845 0.00184515 -0.000156338)
(-0.00331376 0.00196191 -0.00122067)
(-0.00284611 0.000900814 -0.000321581)
(-0.00660386 0.000721835 -9.48286e-05)
(-0.00313187 0.00217998 -0.00157001)
(-0.00416983 0.000830517 -0.000261251)
(-0.00592192 0.00148444 6.04049e-05)
(-0.00544819 0.00109328 0.000353237)
(-0.00804694 0.000751412 0.000588162)
(-0.00655253 0.000309788 6.21461e-05)
(-0.00740593 6.27966e-06 -9.06516e-05)
(-0.00536342 6.66872e-06 -0.000364265)
(-0.00562978 -0.00028941 -0.000834185)
(-0.00382681 -0.000832953 -0.000791125)
(-0.00354212 -0.00136159 -0.000344143)
(-0.00184515 -0.00237846 -0.000156336)
(0.00196191 -0.00331376 -0.00122067)
(0.00222272 -0.00172067 -0.00026013)
(0.00138531 -0.00121415 -7.27196e-05)
(0.00192521 -0.00116907 0.000330996)
(0.000755759 -0.00116129 0.000461455)
(0.00111188 -0.0013622 0.000456007)
(-0.000496774 -0.00102559 0.000182546)
(0.000592475 -0.000439163 0.000397614)
(-0.000622589 -0.000611218 0.000268172)
(0.00140792 0.000487626 0.000126798)
(0.000117166 -0.000213781 1.26643e-05)
(0.00148235 0.00107293 -0.000484479)
(0.00188916 0.000150802 0.000136567)
(0.000412217 0.00126826 -0.000500412)
(0.00172067 0.00222272 -0.000260131)
(0.00136159 0.00354212 -0.000344141)
(-0.00136159 0.00354212 -0.000344141)
(-0.00172067 0.00222272 -0.00026013)
(-0.000412217 0.00126826 -0.000500412)
(-0.00188916 0.000150801 0.000136568)
(-0.00148235 0.00107293 -0.00048448)
(-0.000117165 -0.000213782 1.26654e-05)
(-0.00140792 0.000487626 0.000126799)
(0.000622591 -0.000611219 0.000268173)
(-0.000592472 -0.000439164 0.000397615)
(0.000496778 -0.00102559 0.000182547)
(-0.00111187 -0.0013622 0.000456008)
(-0.000755755 -0.00116129 0.000461456)
(-0.00192521 -0.00116907 0.000330996)
(-0.00138531 -0.00121415 -7.2719e-05)
(-0.00222272 -0.00172067 -0.000260133)
(-0.00196191 -0.00331376 -0.00122067)
(0.000900814 -0.00284612 -0.000321583)
(0.00126826 -0.000412216 -0.000500412)
(0.00030105 -0.000147688 -4.57817e-05)
(0.00116401 -0.000511019 -0.000459786)
(-2.5507e-05 -0.000531999 0.000107181)
(0.000870501 -0.000797922 4.67134e-05)
(-0.000449545 -0.00109304 4.5781e-05)
(0.000712379 -0.000951158 -0.000181756)
(-4.45241e-05 -0.000863768 -0.000109552)
(0.00126212 3.43612e-05 -7.21725e-05)
(0.000359774 -0.000643215 -0.000114867)
(0.00105363 0.000529408 -0.000344305)
(0.000972003 8.77519e-05 0.000200426)
(0.000147689 0.00030105 -4.57813e-05)
(0.00121414 0.00138531 -7.2719e-05)
(0.000832954 0.00382681 -0.000791125)
(-0.000832954 0.00382681 -0.000791125)
(-0.00121414 0.00138531 -7.27179e-05)
(-0.00014769 0.00030105 -4.57817e-05)
(-0.000972003 8.77515e-05 0.000200427)
(-0.00105363 0.000529409 -0.000344305)
(-0.000359774 -0.000643216 -0.000114867)
(-0.00126212 3.43612e-05 -7.21722e-05)
(4.45238e-05 -0.000863769 -0.000109553)
(-0.000712379 -0.000951158 -0.000181756)
(0.000449544 -0.00109304 4.57802e-05)
(-0.000870501 -0.000797923 4.6713e-05)
(2.55057e-05 -0.000532001 0.00010718)
(-0.00116401 -0.00051102 -0.000459786)
(-0.000301052 -0.000147689 -4.57813e-05)
(-0.00126826 -0.000412217 -0.000500411)
(-0.000900814 -0.00284611 -0.000321581)
(0.000721835 -0.00660386 -9.48291e-05)
(0.0001508 -0.00188916 0.000136567)
(8.77518e-05 -0.000972003 0.000200426)
(0.000141145 -0.00137089 -0.000220611)
(-0.000694089 -0.00122551 -5.98518e-05)
(0.000433576 -0.00137887 -0.000123809)
(-0.00114902 -0.00161956 -0.000139772)
(0.000711217 -0.00126446 -0.000496366)
(6.40598e-05 -0.00144039 -9.01362e-05)
(0.00123341 -0.000338046 -0.000439551)
(0.000764531 -0.000850318 -5.65633e-05)
(0.00102857 0.000578936 -0.000408382)
(0.00137089 0.000141146 -0.000220611)
(0.00051102 0.00116401 -0.000459786)
(0.00116907 0.00192521 0.000330996)
(0.00028941 0.00562979 -0.000834186)
(-0.00028941 0.00562978 -0.000834185)
(-0.00116907 0.00192521 0.000330997)
(-0.00051102 0.00116401 -0.000459786)
(-0.00137089 0.000141145 -0.00022061)
(-0.00102857 0.000578936 -0.000408382)
(-0.000764531 -0.000850319 -5.65628e-05)
(-0.00123341 -0.000338046 -0.000439551)
(-6.40593e-05 -0.00144039 -9.01358e-05)
(-0.000711216 -0.00126446 -0.000496366)
(0.00114902 -0.00161956 -0.000139771)
(-0.000433575 -0.00137887 -0.000123809)
(0.000694089 -0.00122551 -5.98513e-05)
(-0.000141145 -0.00137089 -0.000220611)
(-8.77517e-05 -0.000972002 0.000200427)
(-0.0001508 -0.00188916 0.000136567)
(-0.000721836 -0.00660386 -9.48279e-05)
(0.00217999 -0.00313187 -0.00157001)
(0.00107293 -0.00148235 -0.00048448)
(0.000529409 -0.00105363 -0.000344305)
(0.000578936 -0.00102857 -0.000408382)
(-0.000151417 -0.00150943 -6.4132e-05)
(0.000520175 -0.000970237 -0.000292033)
(-0.000670376 -0.00196586 -0.000204561)
(0.000866681 -0.0011912 -0.000593827)
(0.000541239 -0.00135014 -0.000249732)
(0.00174873 -0.000538829 -0.000309444)
(0.00117452 -0.00102742 -0.000236559)
(0.00150943 -0.000151417 -6.4132e-05)
(0.00122551 -0.000694089 -5.98517e-05)
(0.000532001 -2.55064e-05 0.00010718)
(0.00116128 0.000755757 0.000461456)
(-6.66915e-06 0.00536342 -0.000364266)
(6.66848e-06 0.00536342 -0.000364265)
(-0.00116129 0.000755756 0.000461456)
(-0.000532001 -2.55064e-05 0.00010718)
(-0.00122551 -0.000694089 -5.98512e-05)
(-0.00150943 -0.000151417 -6.41322e-05)
(-0.00117452 -0.00102742 -0.000236559)
(-0.00174873 -0.000538829 -0.000309444)
(-0.000541239 -0.00135014 -0.000249732)
(-0.000866681 -0.0011912 -0.000593827)
(0.000670376 -0.00196586 -0.000204561)
(-0.000520176 -0.000970237 -0.000292033)
(0.000151417 -0.00150943 -6.41324e-05)
(-0.000578937 -0.00102857 -0.000408382)
(-0.000529409 -0.00105363 -0.000344306)
(-0.00107293 -0.00148235 -0.000484481)
(-0.00217998 -0.00313187 -0.00157002)
(0.000830518 -0.00416984 -0.000261252)
(-0.000213781 -0.000117166 1.26641e-05)
(-0.000643215 -0.000359774 -0.000114867)
(-0.000850318 -0.000764532 -5.65636e-05)
(-0.00102742 -0.00117452 -0.000236559)
(-0.000577906 -0.000916335 -0.000219458)
(-0.00181493 -0.00221176 -0.000492791)
(0.000846513 -0.000584488 -0.000766826)
(4.17916e-05 -0.00195263 -0.000229423)
(0.000885003 -0.000556712 -0.000554427)
(0.000916335 -0.000577906 -0.000219458)
(0.000970237 0.000520176 -0.000292033)
(0.00137887 0.000433576 -0.000123809)
(0.000797923 0.000870501 4.6713e-05)
(0.0013622 0.00111188 0.000456008)
(-6.27984e-06 0.00740594 -9.06525e-05)
(6.27926e-06 0.00740593 -9.06518e-05)
(-0.0013622 0.00111188 0.000456009)
(-0.000797923 0.000870501 4.67131e-05)
(-0.00137887 0.000433576 -0.000123809)
(-0.000970237 0.000520175 -0.000292033)
(-0.000916335 -0.000577906 -0.000219458)
(-0.000885003 -0.000556712 -0.000554426)
(-4.17909e-05 -0.00195263 -0.000229423)
(-0.000846513 -0.000584488 -0.000766825)
(0.00181493 -0.00221176 -0.000492791)
(0.000577906 -0.000916335 -0.000219458)
(0.00102742 -0.00117452 -0.000236559)
(0.000850318 -0.000764531 -5.65627e-05)
(0.000643215 -0.000359774 -0.000114867)
(0.000213782 -0.000117165 1.26657e-05)
(-0.000830518 -0.00416983 -0.000261251)
(0.00148444 -0.00592193 6.04039e-05)
(0.000487626 -0.00140792 0.000126798)
(3.43618e-05 -0.00126212 -7.21717e-05)
(-0.000338046 -0.00123341 -0.000439552)
(-0.000538829 -0.00174873 -0.000309444)
(-0.000556712 -0.000885002 -0.000554426)
(-0.000673537 -0.00265189 -0.00109964)
(0.000516284 -0.00050565 -0.00101367)
(0.000516315 -0.00183154 -0.00139069)
(0.00265189 -0.000673537 -0.00109964)
(0.00221176 -0.00181493 -0.00049279)
(0.00196586 -0.000670376 -0.000204561)
(0.00161956 -0.00114902 -0.000139771)
(0.00109304 -0.000449545 4.57805e-05)
(0.00102559 -0.000496776 0.000182547)
(-0.000309787 0.00655254 6.21441e-05)
(0.000309787 0.00655254 6.21443e-05)
(-0.00102559 -0.000496776 0.000182547)
(-0.00109304 -0.000449545 4.57807e-05)
(-0.00161956 -0.00114902 -0.000139771)
(-0.00196586 -0.000670376 -0.000204561)
(-0.00221176 -0.00181493 -0.000492791)
(-0.00265189 -0.000673537 -0.00109964)
(-0.000516315 -0.00183154 -0.00139069)
(-0.000516284 -0.000505649 -0.00101367)
(0.000673537 -0.00265189 -0.00109964)
(0.000556712 -0.000885002 -0.000554427)
(0.000538829 -0.00174873 -0.000309444)
(0.000338046 -0.00123341 -0.000439551)
(-3.43615e-05 -0.00126212 -7.21725e-05)
(-0.000487626 -0.00140792 0.000126799)
(-0.00148444 -0.00592192 6.04054e-05)
(0.00109328 -0.00544819 0.000353237)
(-0.000611218 0.000622589 0.000268172)
(-0.000863769 4.45246e-05 -0.000109552)
(-0.00144039 -6.40598e-05 -9.01369e-05)
(-0.00135014 -0.000541239 -0.000249732)
(-0.00195263 -4.17915e-05 -0.000229423)
(-0.00183154 -0.000516315 -0.00139069)
(0.000773503 0.000992753 -0.000477781)
(-0.000992752 0.000773504 -0.000477781)
(0.000505649 0.000516284 -0.00101367)
(0.000584489 0.000846513 -0.000766826)
(0.0011912 0.000866682 -0.000593827)
(0.00126446 0.000711216 -0.000496366)
(0.000951158 0.000712378 -0.000181756)
(0.000439163 0.000592473 0.000397615)
(-0.000751412 0.00804694 0.000588161)
(0.000751411 0.00804694 0.000588163)
(-0.000439163 0.000592474 0.000397615)
(-0.000951159 0.000712378 -0.000181756)
(-0.00126446 0.000711216 -0.000496366)
(-0.0011912 0.000866681 -0.000593827)
(-0.000584487 0.000846513 -0.000766825)
(-0.00050565 0.000516284 -0.00101367)
(0.000992753 0.000773504 -0.000477782)
(-0.000773503 0.000992753 -0.000477782)
(0.00183154 -0.000516315 -0.00139069)
(0.00195263 -4.17911e-05 -0.000229422)
(0.00135014 -0.00054124 -0.000249732)
(0.00144039 -6.40585e-05 -9.0136e-05)
(0.000863768 4.45242e-05 -0.000109553)
(0.000611218 0.00062259 0.000268174)
(-0.00109328 -0.00544819 0.000353236)
(0.000751411 -0.00804694 0.000588164)
(-0.000439163 -0.000592475 0.000397614)
(-0.000951158 -0.000712377 -0.000181756)
(-0.00126446 -0.000711217 -0.000496366)
(-0.0011912 -0.000866681 -0.000593826)
(-0.000584488 -0.000846513 -0.000766826)
(-0.00050565 -0.000516284 -0.00101367)
(0.000992753 -0.000773504 -0.000477782)
(-0.000773503 -0.000992753 -0.000477781)
(0.00183154 0.000516315 -0.00139069)
(0.00195263 4.17915e-05 -0.000229422)
(0.00135014 0.00054124 -0.000249732)
(0.00144039 6.40592e-05 -9.01357e-05)
(0.000863769 -4.4524e-05 -0.000109552)
(0.000611219 -0.00062259 0.000268174)
(-0.00109328 0.00544819 0.000353238)
(0.00109328 0.00544819 0.000353238)
(-0.000611217 -0.00062259 0.000268173)
(-0.000863768 -4.45243e-05 -0.000109552)
(-0.00144039 6.40597e-05 -9.01359e-05)
(-0.00135014 0.000541239 -0.000249732)
(-0.00195263 4.17916e-05 -0.000229422)
(-0.00183154 0.000516315 -0.00139069)
(0.000773503 -0.000992753 -0.000477781)
(-0.000992753 -0.000773504 -0.000477781)
(0.00050565 -0.000516284 -0.00101367)
(0.000584489 -0.000846513 -0.000766826)
(0.0011912 -0.000866682 -0.000593827)
(0.00126446 -0.000711216 -0.000496365)
(0.00095116 -0.000712379 -0.000181756)
(0.000439163 -0.000592472 0.000397615)
(-0.00075141 -0.00804694 0.00058816)
(0.000309791 -0.00655254 6.21456e-05)
(-0.00102559 0.000496773 0.000182545)
(-0.00109304 0.000449545 4.57811e-05)
(-0.00161956 0.00114902 -0.000139772)
(-0.00196586 0.000670377 -0.000204561)
(-0.00221176 0.00181493 -0.000492791)
(-0.00265189 0.000673537 -0.00109964)
(-0.000516315 0.00183154 -0.00139069)
(-0.000516284 0.00050565 -0.00101367)
(0.000673537 0.00265189 -0.00109964)
(0.000556712 0.000885002 -0.000554427)
(0.000538829 0.00174873 -0.000309444)
(0.000338046 0.00123341 -0.000439551)
(-3.43618e-05 0.00126212 -7.21727e-05)
(-0.000487626 0.00140792 0.000126799)
(-0.00148444 0.00592192 6.04061e-05)
(0.00148444 0.00592192 6.04066e-05)
(0.000487626 0.00140792 0.000126799)
(3.43617e-05 0.00126212 -7.21723e-05)
(-0.000338046 0.00123341 -0.000439551)
(-0.000538829 0.00174873 -0.000309444)
(-0.000556712 0.000885002 -0.000554427)
(-0.000673537 0.00265189 -0.00109964)
(0.000516284 0.00050565 -0.00101367)
(0.000516315 0.00183154 -0.00139069)
(0.00265189 0.000673537 -0.00109964)
(0.00221175 0.00181493 -0.00049279)
(0.00196586 0.000670376 -0.000204561)
(0.00161956 0.00114902 -0.000139772)
(0.00109304 0.000449545 4.57796e-05)
(0.00102559 0.000496776 0.000182547)
(-0.000309789 -0.00655254 6.21462e-05)
(6.28146e-06 -0.00740594 -9.06513e-05)
(-0.0013622 -0.00111188 0.000456008)
(-0.000797922 -0.0008705 4.6714e-05)
(-0.00137887 -0.000433576 -0.000123809)
(-0.000970237 -0.000520175 -0.000292033)
(-0.000916335 0.000577906 -0.000219458)
(-0.000885002 0.000556713 -0.000554426)
(-4.17913e-05 0.00195263 -0.000229422)
(-0.000846513 0.000584488 -0.000766825)
(0.00181493 0.00221176 -0.00049279)
(0.000577906 0.000916335 -0.000219457)
(0.00102742 0.00117452 -0.000236559)
(0.000850318 0.000764531 -5.65625e-05)
(0.000643215 0.000359773 -0.000114866)
(0.000213782 0.000117165 1.26652e-05)
(-0.000830518 0.00416983 -0.000261252)
(0.000830518 0.00416983 -0.000261253)
(-0.000213782 0.000117166 1.26649e-05)
(-0.000643215 0.000359773 -0.000114867)
(-0.000850318 0.000764532 -5.6563e-05)
(-0.00102742 0.00117452 -0.000236559)
(-0.000577906 0.000916335 -0.000219458)
(-0.00181493 0.00221176 -0.000492791)
(0.000846513 0.000584488 -0.000766826)
(4.17915e-05 0.00195263 -0.000229422)
(0.000885003 0.000556712 -0.000554427)
(0.000916335 0.000577906 -0.000219458)
(0.000970238 -0.000520176 -0.000292034)
(0.00137887 -0.000433575 -0.000123809)
(0.000797924 -0.000870502 4.67123e-05)
(0.0013622 -0.00111187 0.000456009)
(-6.27885e-06 -0.00740593 -9.06522e-05)
(6.67002e-06 -0.00536342 -0.000364267)
(-0.00116129 -0.000755758 0.000461455)
(-0.000532 2.55066e-05 0.000107181)
(-0.00122551 0.000694088 -5.98524e-05)
(-0.00150943 0.000151417 -6.41316e-05)
(-0.00117452 0.00102742 -0.00023656)
(-0.00174873 0.000538829 -0.000309444)
(-0.00054124 0.00135014 -0.000249732)
(-0.000866681 0.0011912 -0.000593827)
(0.000670376 0.00196586 -0.000204561)
(-0.000520175 0.000970237 -0.000292033)
(0.000151417 0.00150943 -6.41325e-05)
(-0.000578937 0.00102857 -0.000408382)
(-0.000529409 0.00105363 -0.000344306)
(-0.00107293 0.00148235 -0.000484479)
(-0.00217998 0.00313187 -0.00157001)
(0.00217998 0.00313187 -0.00157001)
(0.00107293 0.00148235 -0.000484479)
(0.000529408 0.00105363 -0.000344305)
(0.000578937 0.00102857 -0.000408382)
(-0.000151417 0.00150943 -6.41318e-05)
(0.000520176 0.000970237 -0.000292033)
(-0.000670377 0.00196586 -0.000204561)
(0.000866682 0.0011912 -0.000593827)
(0.000541239 0.00135014 -0.000249732)
(0.00174873 0.000538829 -0.000309444)
(0.00117452 0.00102742 -0.000236559)
(0.00150943 0.000151417 -6.41329e-05)
(0.0012255 0.000694088 -5.98513e-05)
(0.000532001 2.55061e-05 0.000107179)
(0.00116128 -0.000755757 0.000461455)
(-6.66854e-06 -0.00536342 -0.000364265)
(-0.00028941 -0.00562978 -0.000834185)
(-0.00116907 -0.00192521 0.000330997)
(-0.000511019 -0.00116401 -0.000459785)
(-0.00137089 -0.000141146 -0.000220611)
(-0.00102857 -0.000578935 -0.000408381)
(-0.000764531 0.000850319 -5.65633e-05)
(-0.0012334 0.000338046 -0.000439551)
(-6.40592e-05 0.00144039 -9.01359e-05)
(-0.000711216 0.00126446 -0.000496365)
(0.00114902 0.00161956 -0.000139771)
(-0.000433576 0.00137887 -0.000123808)
(0.000694089 0.00122551 -5.98511e-05)
(-0.000141146 0.00137089 -0.00022061)
(-8.77524e-05 0.000972002 0.000200426)
(-0.000150803 0.00188916 0.000136567)
(-0.000721838 0.00660386 -9.48297e-05)
(0.000721839 0.00660386 -9.48283e-05)
(0.000150803 0.00188916 0.000136567)
(8.77531e-05 0.000972003 0.000200425)
(0.000141146 0.00137089 -0.000220611)
(-0.000694088 0.00122551 -5.98527e-05)
(0.000433576 0.00137887 -0.00012381)
(-0.00114902 0.00161956 -0.000139772)
(0.000711217 0.00126446 -0.000496367)
(6.40592e-05 0.00144039 -9.01363e-05)
(0.00123341 0.000338046 -0.000439552)
(0.000764531 0.000850319 -5.65629e-05)
(0.00102857 -0.000578936 -0.000408382)
(0.00137089 -0.000141145 -0.00022061)
(0.000511021 -0.00116401 -0.000459787)
(0.00116907 -0.00192521 0.000330997)
(0.000289409 -0.00562978 -0.000834183)
(-0.000832954 -0.00382681 -0.000791128)
(-0.00121415 -0.00138531 -7.27177e-05)
(-0.000147687 -0.000301051 -4.57815e-05)
(-0.000972003 -8.77525e-05 0.000200425)
(-0.00105363 -0.000529408 -0.000344304)
(-0.000359775 0.000643215 -0.000114868)
(-0.00126212 -3.43614e-05 -7.21722e-05)
(4.45231e-05 0.000863768 -0.000109552)
(-0.000712379 0.000951159 -0.000181756)
(0.000449544 0.00109304 4.57806e-05)
(-0.000870501 0.000797923 4.67132e-05)
(2.55054e-05 0.000532001 0.00010718)
(-0.00116401 0.000511021 -0.000459787)
(-0.000301052 0.00014769 -4.57816e-05)
(-0.00126826 0.000412217 -0.000500412)
(-0.000900815 0.00284611 -0.000321582)
(0.000900816 0.00284612 -0.00032158)
(0.00126826 0.000412217 -0.000500413)
(0.00030105 0.000147688 -4.57808e-05)
(0.00116401 0.00051102 -0.000459785)
(-2.55075e-05 0.000531999 0.000107181)
(0.000870501 0.000797923 4.67127e-05)
(-0.000449546 0.00109304 4.57805e-05)
(0.000712378 0.000951158 -0.000181757)
(-4.45249e-05 0.000863768 -0.000109553)
(0.00126212 -3.43616e-05 -7.21723e-05)
(0.000359774 0.000643215 -0.000114867)
(0.00105363 -0.000529408 -0.000344306)
(0.000972002 -8.77524e-05 0.000200426)
(0.000147691 -0.00030105 -4.57818e-05)
(0.00121414 -0.00138531 -7.27189e-05)
(0.000832954 -0.00382681 -0.000791123)
(-0.00136159 -0.00354212 -0.000344141)
(-0.00172067 -0.00222272 -0.000260132)
(-0.000412216 -0.00126826 -0.000500412)
(-0.00188916 -0.000150801 0.000136567)
(-0.00148235 -0.00107292 -0.000484479)
(-0.000117166 0.000213782 1.26647e-05)
(-0.00140792 -0.000487625 0.000126799)
(0.000622591 0.000611219 0.000268173)
(-0.000592472 0.000439164 0.000397616)
(0.000496779 0.00102559 0.000182548)
(-0.00111187 0.0013622 0.000456009)
(-0.000755755 0.00116129 0.000461456)
(-0.00192521 0.00116907 0.000330996)
(-0.00138531 0.00121414 -7.27191e-05)
(-0.00222272 0.00172067 -0.000260132)
(-0.00196191 0.00331375 -0.00122067)
(0.00196191 0.00331376 -0.00122067)
(0.00222272 0.00172067 -0.000260128)
(0.00138531 0.00121415 -7.27167e-05)
(0.00192521 0.00116907 0.000330996)
(0.000755759 0.00116129 0.000461452)
(0.00111188 0.0013622 0.000456008)
(-0.000496774 0.0010256 0.000182545)
(0.000592475 0.000439164 0.000397613)
(-0.000622588 0.000611217 0.000268173)
(0.00140792 -0.000487626 0.000126798)
(0.000117168 0.000213781 1.26654e-05)
(0.00148235 -0.00107293 -0.000484481)
(0.00188916 -0.000150801 0.000136569)
(0.00041222 -0.00126826 -0.000500412)
(0.00172067 -0.00222272 -0.000260129)
(0.00136159 -0.00354212 -0.000344139)
(-0.00237845 -0.00184515 -0.000156343)
(-0.00331375 -0.00196191 -0.00122067)
(-0.00284611 -0.000900815 -0.000321581)
(-0.00660386 -0.000721837 -9.48268e-05)
(-0.00313187 -0.00217998 -0.00157001)
(-0.00416983 -0.000830517 -0.00026125)
(-0.00592192 -0.00148444 6.04066e-05)
(-0.00544819 -0.00109328 0.000353238)
(-0.00804694 -0.000751412 0.000588161)
(-0.00655254 -0.000309786 6.21444e-05)
(-0.00740594 -6.27901e-06 -9.06505e-05)
(-0.00536342 -6.66825e-06 -0.000364264)
(-0.00562979 0.000289411 -0.000834184)
(-0.00382681 0.000832955 -0.000791124)
(-0.00354212 0.00136159 -0.00034414)
(-0.00184515 0.00237846 -0.000156338)
(0.00184515 0.00237846 -0.000156341)
(0.00354212 0.00136159 -0.000344142)
(0.00382681 0.000832951 -0.000791128)
(0.00562979 0.000289408 -0.000834184)
(0.00536343 -6.67266e-06 -0.000364264)
(0.00740594 -6.28152e-06 -9.06548e-05)
(0.00655254 -0.000309789 6.21408e-05)
(0.00804694 -0.000751412 0.00058816)
(0.0054482 -0.00109328 0.000353239)
(0.00592192 -0.00148444 6.04068e-05)
(0.00416984 -0.000830519 -0.000261253)
(0.00313187 -0.00217998 -0.00157002)
(0.00660386 -0.000721838 -9.48267e-05)
(0.00284612 -0.000900814 -0.000321584)
(0.00331376 -0.00196191 -0.00122067)
(0.00237846 -0.00184515 -0.000156332)
(-0.00237846 0.00184514 -0.000156339)
(-0.00331376 0.00196191 -0.00122067)
(-0.00284612 0.000900814 -0.000321581)
(-0.00660386 0.000721838 -9.48287e-05)
(-0.00313187 0.00217998 -0.00157002)
(-0.00416984 0.000830518 -0.000261253)
(-0.00592192 0.00148444 6.04051e-05)
(-0.0054482 0.00109328 0.000353238)
(-0.00804694 0.000751413 0.000588161)
(-0.00655254 0.000309789 6.21439e-05)
(-0.00740593 6.28016e-06 -9.06509e-05)
(-0.00536342 6.66982e-06 -0.000364265)
(-0.00562978 -0.000289409 -0.000834185)
(-0.00382681 -0.000832954 -0.000791126)
(-0.00354211 -0.00136159 -0.000344142)
(-0.00184515 -0.00237847 -0.000156337)
(0.00184515 -0.00237847 -0.000156331)
(0.00354211 -0.00136158 -0.000344146)
(0.00382681 -0.000832947 -0.000791135)
(0.00562978 -0.000289412 -0.000834183)
(0.00536342 6.66528e-06 -0.00036426)
(0.00740593 6.27811e-06 -9.06504e-05)
(0.00655253 0.000309787 6.2142e-05)
(0.00804694 0.000751411 0.000588158)
(0.00544819 0.00109328 0.000353241)
(0.00592192 0.00148444 6.04088e-05)
(0.00416983 0.000830517 -0.000261253)
(0.00313187 0.00217998 -0.00157001)
(0.00660386 0.000721837 -9.48254e-05)
(0.00284611 0.000900814 -0.000321583)
(0.00331376 0.00196191 -0.00122067)
(0.00237846 0.00184515 -0.000156337)
(-0.00136159 0.00354212 -0.000344141)
(-0.00172067 0.00222272 -0.000260131)
(-0.000412217 0.00126826 -0.000500411)
(-0.00188916 0.000150802 0.000136567)
(-0.00148234 0.00107293 -0.000484478)
(-0.000117168 -0.00021378 1.2665e-05)
(-0.00140792 0.000487627 0.000126798)
(0.000622588 -0.000611217 0.000268173)
(-0.000592474 -0.000439164 0.000397613)
(0.000496775 -0.00102559 0.000182546)
(-0.00111188 -0.0013622 0.000456008)
(-0.000755755 -0.00116129 0.000461455)
(-0.00192521 -0.00116907 0.000330997)
(-0.00138531 -0.00121414 -7.27182e-05)
(-0.00222272 -0.00172067 -0.000260127)
(-0.00196189 -0.00331376 -0.00122068)
(0.00196189 -0.00331376 -0.00122068)
(0.00222273 -0.00172067 -0.000260113)
(0.00138531 -0.00121414 -7.27127e-05)
(0.00192522 -0.00116907 0.000330997)
(0.000755755 -0.00116129 0.000461452)
(0.00111188 -0.0013622 0.00045601)
(-0.000496778 -0.00102559 0.000182547)
(0.000592473 -0.000439163 0.000397615)
(-0.000622591 -0.00061122 0.000268174)
(0.00140792 0.000487626 0.000126799)
(0.000117165 -0.000213782 1.26657e-05)
(0.00148235 0.00107293 -0.00048448)
(0.00188916 0.000150802 0.000136567)
(0.000412219 0.00126826 -0.000500413)
(0.00172067 0.00222272 -0.000260133)
(0.0013616 0.00354212 -0.000344139)
(-0.000832949 0.00382682 -0.000791125)
(-0.00121414 0.00138532 -7.27193e-05)
(-0.000147688 0.000301049 -4.57812e-05)
(-0.000972003 8.77527e-05 0.000200426)
(-0.00105363 0.000529407 -0.000344305)
(-0.000359773 -0.000643215 -0.000114867)
(-0.00126212 3.43614e-05 -7.21724e-05)
(4.4525e-05 -0.000863768 -0.000109553)
(-0.000712379 -0.000951159 -0.000181757)
(0.000449545 -0.00109304 4.57805e-05)
(-0.000870501 -0.000797923 4.6713e-05)
(2.55052e-05 -0.000532 0.000107181)
(-0.00116401 -0.000511021 -0.000459786)
(-0.000301053 -0.000147688 -4.57816e-05)
(-0.00126826 -0.000412219 -0.000500412)
(-0.000900817 -0.00284611 -0.000321579)
(0.000900821 -0.00284611 -0.000321578)
(0.00126826 -0.000412225 -0.000500417)
(0.000301052 -0.000147686 -4.57812e-05)
(0.00116401 -0.00051102 -0.000459786)
(-2.55052e-05 -0.000531999 0.000107181)
(0.000870501 -0.000797923 4.67127e-05)
(-0.000449544 -0.00109304 4.57802e-05)
(0.000712379 -0.000951158 -0.000181756)
(-4.45228e-05 -0.000863769 -0.000109552)
(0.00126212 3.43617e-05 -7.21724e-05)
(0.000359775 -0.000643216 -0.000114867)
(0.00105363 0.000529408 -0.000344305)
(0.000972003 8.77508e-05 0.000200427)
(0.000147691 0.000301052 -4.57816e-05)
(0.00121414 0.00138531 -7.27181e-05)
(0.000832953 0.00382681 -0.000791121)
(-0.000289407 0.00562979 -0.000834186)
(-0.00116907 0.00192521 0.000330997)
(-0.000511019 0.00116401 -0.000459786)
(-0.00137089 0.000141146 -0.000220611)
(-0.00102857 0.000578936 -0.000408381)
(-0.000764532 -0.000850318 -5.65632e-05)
(-0.00123341 -0.000338046 -0.000439551)
(-6.40596e-05 -0.00144039 -9.01361e-05)
(-0.000711217 -0.00126446 -0.000496367)
(0.00114902 -0.00161956 -0.000139772)
(-0.000433576 -0.00137887 -0.000123809)
(0.000694089 -0.00122551 -5.98519e-05)
(-0.000141145 -0.00137089 -0.00022061)
(-8.77503e-05 -0.000972003 0.000200426)
(-0.000150801 -0.00188916 0.000136569)
(-0.000721836 -0.00660386 -9.48314e-05)
(0.000721839 -0.00660386 -9.48237e-05)
(0.000150796 -0.00188916 0.000136567)
(8.77512e-05 -0.000972003 0.000200425)
(0.000141145 -0.00137089 -0.00022061)
(-0.000694089 -0.00122551 -5.98515e-05)
(0.000433575 -0.00137887 -0.000123808)
(-0.00114902 -0.00161956 -0.000139771)
(0.000711216 -0.00126446 -0.000496366)
(6.40594e-05 -0.00144039 -9.01358e-05)
(0.00123341 -0.000338046 -0.000439551)
(0.000764531 -0.000850319 -5.65631e-05)
(0.00102857 0.000578936 -0.000408382)
(0.00137089 0.000141146 -0.000220611)
(0.000511021 0.00116401 -0.000459786)
(0.00116907 0.00192521 0.000330996)
(0.000289411 0.00562978 -0.000834183)
(6.67054e-06 0.00536343 -0.000364267)
(-0.00116129 0.000755759 0.000461456)
(-0.000532 -2.55071e-05 0.00010718)
(-0.00122551 -0.000694088 -5.98512e-05)
(-0.00150943 -0.000151417 -6.41323e-05)
(-0.00117452 -0.00102742 -0.000236559)
(-0.00174873 -0.000538829 -0.000309444)
(-0.000541239 -0.00135014 -0.000249732)
(-0.000866682 -0.0011912 -0.000593827)
(0.000670376 -0.00196586 -0.00020456)
(-0.000520175 -0.000970237 -0.000292033)
(0.000151417 -0.00150943 -6.41321e-05)
(-0.000578936 -0.00102857 -0.000408382)
(-0.00052941 -0.00105363 -0.000344305)
(-0.00107293 -0.00148235 -0.00048448)
(-0.00217999 -0.00313187 -0.00157001)
(0.00217998 -0.00313187 -0.00157002)
(0.00107293 -0.00148235 -0.00048448)
(0.000529409 -0.00105363 -0.000344306)
(0.000578937 -0.00102857 -0.000408382)
(-0.000151416 -0.00150943 -6.41322e-05)
(0.000520176 -0.000970238 -0.000292033)
(-0.000670376 -0.00196586 -0.000204561)
(0.000866682 -0.0011912 -0.000593827)
(0.00054124 -0.00135014 -0.000249732)
(0.00174873 -0.000538829 -0.000309444)
(0.00117452 -0.00102742 -0.000236559)
(0.00150943 -0.000151417 -6.41321e-05)
(0.00122551 -0.000694089 -5.98515e-05)
(0.000532001 -2.55064e-05 0.000107181)
(0.00116128 0.000755755 0.000461456)
(-6.66753e-06 0.00536342 -0.000364265)
(6.2805e-06 0.00740594 -9.06536e-05)
(-0.0013622 0.00111188 0.000456009)
(-0.000797922 0.000870501 4.67132e-05)
(-0.00137887 0.000433576 -0.000123809)
(-0.000970237 0.000520176 -0.000292033)
(-0.000916335 -0.000577906 -0.000219458)
(-0.000885003 -0.000556712 -0.000554426)
(-4.17912e-05 -0.00195263 -0.000229423)
(-0.000846513 -0.000584488 -0.000766826)
(0.00181493 -0.00221176 -0.000492791)
(0.000577905 -0.000916335 -0.000219458)
(0.00102742 -0.00117452 -0.000236559)
(0.000850319 -0.000764531 -5.65631e-05)
(0.000643215 -0.000359773 -0.000114867)
(0.000213782 -0.000117164 1.26652e-05)
(-0.000830518 -0.00416984 -0.000261252)
(0.000830519 -0.00416983 -0.000261251)
(-0.000213782 -0.000117165 1.26659e-05)
(-0.000643216 -0.000359773 -0.000114867)
(-0.000850319 -0.000764531 -5.65626e-05)
(-0.00102742 -0.00117452 -0.000236559)
(-0.000577906 -0.000916335 -0.000219457)
(-0.00181493 -0.00221176 -0.000492791)
(0.000846513 -0.000584488 -0.000766825)
(4.17914e-05 -0.00195263 -0.000229422)
(0.000885003 -0.000556713 -0.000554426)
(0.000916335 -0.000577906 -0.000219458)
(0.000970237 0.000520175 -0.000292033)
(0.00137887 0.000433576 -0.000123809)
(0.000797923 0.000870501 4.67131e-05)
(0.0013622 0.00111188 0.000456009)
(-6.27857e-06 0.00740593 -9.06511e-05)
(0.00030979 0.00655254 6.21437e-05)
(-0.00102559 -0.000496775 0.000182547)
(-0.00109304 -0.000449545 4.57808e-05)
(-0.00161956 -0.00114902 -0.000139771)
(-0.00196586 -0.000670376 -0.000204561)
(-0.00221176 -0.00181493 -0.00049279)
(-0.00265189 -0.000673537 -0.00109964)
(-0.000516315 -0.00183154 -0.00139069)
(-0.000516284 -0.00050565 -0.00101367)
(0.000673537 -0.00265189 -0.00109964)
(0.000556712 -0.000885003 -0.000554426)
(0.000538829 -0.00174873 -0.000309444)
(0.000338046 -0.00123341 -0.000439551)
(-3.43616e-05 -0.00126212 -7.21721e-05)
(-0.000487626 -0.00140792 0.000126798)
(-0.00148444 -0.00592192 6.0404e-05)
(0.00148444 -0.00592192 6.04059e-05)
(0.000487626 -0.00140792 0.000126798)
(3.43617e-05 -0.00126212 -7.21724e-05)
(-0.000338046 -0.00123341 -0.000439551)
(-0.000538829 -0.00174873 -0.000309444)
(-0.000556712 -0.000885003 -0.000554426)
(-0.000673537 -0.00265189 -0.00109964)
(0.000516284 -0.00050565 -0.00101367)
(0.000516315 -0.00183154 -0.00139069)
(0.00265189 -0.000673537 -0.00109964)
(0.00221176 -0.00181493 -0.000492791)
(0.00196586 -0.000670376 -0.000204561)
(0.00161956 -0.00114902 -0.000139771)
(0.00109304 -0.000449545 4.57805e-05)
(0.00102559 -0.000496777 0.000182548)
(-0.000309786 0.00655253 6.21452e-05)
(0.000751412 0.00804694 0.000588162)
(-0.000439163 0.000592474 0.000397615)
(-0.000951158 0.000712379 -0.000181756)
(-0.00126446 0.000711216 -0.000496366)
(-0.0011912 0.000866682 -0.000593827)
(-0.000584489 0.000846513 -0.000766825)
(-0.00050565 0.000516284 -0.00101367)
(0.000992753 0.000773504 -0.000477781)
(-0.000773505 0.000992753 -0.000477782)
(0.00183154 -0.000516315 -0.00139069)
(0.00195263 -4.17914e-05 -0.000229423)
(0.00135014 -0.000541239 -0.000249732)
(0.00144039 -6.40594e-05 -9.01362e-05)
(0.000863768 4.45244e-05 -0.000109552)
(0.000611218 0.000622589 0.000268173)
(-0.00109328 -0.00544819 0.000353238)
(0.00109328 -0.00544819 0.000353236)
(-0.000611218 0.00062259 0.000268173)