/*--------------------------------*- C++ -*----------------------------------*\
| =========                 |                                                 |
| \\      /  F ield         | OpenFOAM: The Open Source CFD Toolbox           |
|  \\    /   O peration     | Version:  2112                                  |
|   \\  /    A nd           | Website:  www.openfoam.com                      |
|    \\/     M anipulation  |                                                 |
\*---------------------------------------------------------------------------*/
FoamFile
{
    version     2.0;
    format      ascii;
    arch        "LSB;label=32;scalar=64";
    class       volVectorField;
    location    "680";
    object      URel;
}
// * * * * * * * * * * * * * * * * * * * * * * * * * * * * * * * * * * * * * //

dimensions      [0 1 -1 0 0 0 0];

internalField   nonuniform List<vector> 
32768
(
(0.00184515 -0.00237845 -0.00015634)
(0.00354212 -0.00136159 -0.000344144)
(0.00382681 -0.00083295 -0.000791126)
(0.00562978 -0.000289407 -0.000834185)
(0.00536343 6.6716e-06 -0.000364265)
(0.00740594 6.28056e-06 -9.06543e-05)
(0.00655254 0.000309791 6.21467e-05)
(0.00804694 0.000751412 0.00058816)
(0.00544819 0.00109328 0.000353237)
(0.00592192 0.00148444 6.04044e-05)
(0.00416984 0.00083052 -0.000261253)
(0.00313187 0.00217998 -0.00157001)
(0.00660386 0.000721838 -9.48338e-05)
(0.00284612 0.000900817 -0.000321583)
(0.00331376 0.00196191 -0.00122067)
(0.00237846 0.00184515 -0.000156337)
(-0.00237845 0.00184515 -0.000156339)
(-0.00331376 0.00196191 -0.00122066)
(-0.00284612 0.000900817 -0.000321581)
(-0.00660386 0.000721836 -9.48336e-05)
(-0.00313187 0.00217998 -0.00157001)
(-0.00416983 0.000830519 -0.000261251)
(-0.00592192 0.00148444 6.04038e-05)
(-0.00544819 0.00109328 0.000353237)
(-0.00804694 0.000751412 0.00058816)
(-0.00655254 0.000309789 6.21486e-05)
(-0.00740593 6.27857e-06 -9.06529e-05)
(-0.00536342 6.66886e-06 -0.000364264)
(-0.00562978 -0.00028941 -0.000834184)
(-0.00382681 -0.000832952 -0.000791125)
(-0.00354212 -0.00136159 -0.000344144)
(-0.00184515 -0.00237846 -0.000156337)
(0.00196191 -0.00331376 -0.00122066)
(0.00222272 -0.00172067 -0.000260131)
(0.00138531 -0.00121415 -7.27189e-05)
(0.00192521 -0.00116907 0.000330995)
(0.000755758 -0.00116129 0.000461454)
(0.00111188 -0.0013622 0.000456006)
(-0.000496774 -0.00102559 0.000182546)
(0.000592475 -0.000439164 0.000397614)
(-0.000622587 -0.000611218 0.000268171)
(0.00140792 0.000487627 0.000126798)
(0.000117167 -0.000213782 1.26667e-05)
(0.00148234 0.00107293 -0.000484481)
(0.00188917 0.000150802 0.000136567)
(0.000412218 0.00126826 -0.000500408)
(0.00172067 0.00222272 -0.000260132)
(0.0013616 0.00354212 -0.000344142)
(-0.0013616 0.00354212 -0.000344142)
(-0.00172067 0.00222272 -0.000260131)
(-0.000412217 0.00126826 -0.000500408)
(-0.00188917 0.000150801 0.000136568)
(-0.00148234 0.00107293 -0.000484481)
(-0.000117167 -0.000213782 1.26679e-05)
(-0.00140792 0.000487626 0.000126798)
(0.000622589 -0.000611219 0.000268172)
(-0.000592473 -0.000439164 0.000397616)
(0.000496777 -0.00102559 0.000182547)
(-0.00111187 -0.0013622 0.000456007)
(-0.000755755 -0.00116129 0.000461454)
(-0.00192521 -0.00116907 0.000330995)
(-0.00138531 -0.00121415 -7.27182e-05)
(-0.00222272 -0.00172067 -0.000260134)
(-0.00196191 -0.00331376 -0.00122067)
(0.000900817 -0.00284612 -0.000321583)
(0.00126826 -0.000412216 -0.000500408)
(0.000301051 -0.000147688 -4.57849e-05)
(0.00116401 -0.000511018 -0.000459785)
(-2.55066e-05 -0.000531999 0.000107182)
(0.000870501 -0.000797922 4.67131e-05)
(-0.000449546 -0.00109304 4.57802e-05)
(0.000712379 -0.000951158 -0.000181757)
(-4.45251e-05 -0.000863768 -0.000109551)
(0.00126212 3.43606e-05 -7.21733e-05)
(0.000359772 -0.000643215 -0.000114866)
(0.00105364 0.000529409 -0.000344305)
(0.000972002 8.77504e-05 0.000200427)
(0.000147689 0.000301052 -4.57846e-05)
(0.00121414 0.00138531 -7.27183e-05)
(0.000832953 0.00382681 -0.000791126)
(-0.000832953 0.00382681 -0.000791125)
(-0.00121414 0.00138531 -7.27171e-05)
(-0.000147689 0.000301052 -4.57849e-05)
(-0.000972002 8.775e-05 0.000200428)
(-0.00105364 0.00052941 -0.000344306)
(-0.000359773 -0.000643215 -0.000114866)
(-0.00126212 3.43606e-05 -7.2173e-05)
(4.45248e-05 -0.000863769 -0.000109552)
(-0.000712379 -0.000951158 -0.000181757)
(0.000449545 -0.00109304 4.57793e-05)
(-0.000870502 -0.000797924 4.67127e-05)
(2.55053e-05 -0.000532001 0.000107182)
(-0.00116401 -0.000511019 -0.000459785)
(-0.000301053 -0.000147688 -4.57845e-05)
(-0.00126826 -0.000412217 -0.000500407)
(-0.000900817 -0.00284612 -0.000321581)
(0.000721836 -0.00660386 -9.4834e-05)
(0.000150801 -0.00188917 0.000136567)
(8.77503e-05 -0.000972003 0.000200427)
(0.000141146 -0.00137089 -0.000220611)
(-0.000694089 -0.00122551 -5.98519e-05)
(0.000433576 -0.00137887 -0.000123809)
(-0.00114902 -0.00161956 -0.000139772)
(0.000711217 -0.00126446 -0.000496366)
(6.40601e-05 -0.00144039 -9.01377e-05)
(0.00123341 -0.000338046 -0.00043955)
(0.000764532 -0.000850318 -5.65647e-05)
(0.00102857 0.000578936 -0.000408382)
(0.00137089 0.000141146 -0.000220611)
(0.00051102 0.00116401 -0.000459785)
(0.00116907 0.00192521 0.000330995)
(0.00028941 0.00562979 -0.000834185)
(-0.00028941 0.00562978 -0.000834184)
(-0.00116907 0.00192521 0.000330996)
(-0.000511019 0.00116401 -0.000459785)
(-0.00137089 0.000141146 -0.00022061)
(-0.00102857 0.000578936 -0.000408382)
(-0.000764532 -0.000850318 -5.65641e-05)
(-0.00123341 -0.000338046 -0.00043955)
(-6.40596e-05 -0.00144039 -9.01373e-05)
(-0.000711216 -0.00126446 -0.000496365)
(0.00114902 -0.00161956 -0.000139771)
(-0.000433575 -0.00137887 -0.000123808)
(0.000694089 -0.00122551 -5.98514e-05)
(-0.000141146 -0.00137089 -0.00022061)
(-8.77502e-05 -0.000972002 0.000200428)
(-0.0001508 -0.00188917 0.000136567)
(-0.000721837 -0.00660386 -9.48329e-05)
(0.00217998 -0.00313187 -0.00157001)
(0.00107293 -0.00148234 -0.000484481)
(0.00052941 -0.00105364 -0.000344305)
(0.000578936 -0.00102857 -0.000408382)
(-0.000151417 -0.00150943 -6.41324e-05)
(0.000520175 -0.000970237 -0.000292033)
(-0.000670377 -0.00196586 -0.00020456)
(0.000866682 -0.0011912 -0.000593828)
(0.000541239 -0.00135014 -0.000249731)
(0.00174873 -0.000538829 -0.000309444)
(0.00117452 -0.00102742 -0.000236559)
(0.00150943 -0.000151417 -6.41325e-05)
(0.00122551 -0.000694089 -5.98518e-05)
(0.000532001 -2.5506e-05 0.000107182)
(0.00116129 0.000755756 0.000461454)
(-6.66929e-06 0.00536342 -0.000364265)
(6.66862e-06 0.00536342 -0.000364263)
(-0.00116129 0.000755756 0.000461455)
(-0.000532001 -2.5506e-05 0.000107181)
(-0.00122551 -0.000694089 -5.98513e-05)
(-0.00150943 -0.000151417 -6.41327e-05)
(-0.00117452 -0.00102742 -0.000236559)
(-0.00174873 -0.000538829 -0.000309444)
(-0.000541239 -0.00135014 -0.000249731)
(-0.000866682 -0.0011912 -0.000593828)
(0.000670377 -0.00196586 -0.00020456)
(-0.000520176 -0.000970237 -0.000292033)
(0.000151417 -0.00150943 -6.41328e-05)
(-0.000578936 -0.00102857 -0.000408382)
(-0.00052941 -0.00105364 -0.000344306)
(-0.00107293 -0.00148234 -0.000484482)
(-0.00217998 -0.00313187 -0.00157002)
(0.00083052 -0.00416984 -0.000261251)
(-0.000213782 -0.000117168 1.26666e-05)
(-0.000643215 -0.000359773 -0.000114866)
(-0.000850318 -0.000764532 -5.6565e-05)
(-0.00102742 -0.00117452 -0.000236559)
(-0.000577906 -0.000916335 -0.000219458)
(-0.00181493 -0.00221176 -0.000492791)
(0.000846512 -0.000584489 -0.000766826)
(4.17911e-05 -0.00195263 -0.000229423)
(0.000885003 -0.000556713 -0.000554426)
(0.000916335 -0.000577906 -0.000219457)
(0.000970237 0.000520176 -0.000292033)
(0.00137887 0.000433576 -0.000123809)
(0.000797923 0.000870501 4.67127e-05)
(0.0013622 0.00111188 0.000456007)
(-6.27876e-06 0.00740593 -9.06539e-05)
(6.27818e-06 0.00740593 -9.06532e-05)
(-0.0013622 0.00111188 0.000456007)
(-0.000797923 0.000870501 4.67128e-05)
(-0.00137887 0.000433575 -0.000123808)
(-0.000970237 0.000520176 -0.000292033)
(-0.000916335 -0.000577906 -0.000219457)
(-0.000885003 -0.000556712 -0.000554426)
(-4.17905e-05 -0.00195263 -0.000229423)
(-0.000846512 -0.000584489 -0.000766825)
(0.00181493 -0.00221176 -0.000492791)
(0.000577906 -0.000916335 -0.000219457)
(0.00102742 -0.00117452 -0.000236559)
(0.000850318 -0.000764531 -5.65641e-05)
(0.000643215 -0.000359773 -0.000114866)
(0.000213782 -0.000117167 1.26681e-05)
(-0.00083052 -0.00416983 -0.00026125)
(0.00148444 -0.00592193 6.04028e-05)
(0.000487627 -0.00140792 0.000126797)
(3.43612e-05 -0.00126212 -7.21725e-05)
(-0.000338046 -0.00123341 -0.000439551)
(-0.000538829 -0.00174873 -0.000309444)
(-0.000556713 -0.000885003 -0.000554426)
(-0.000673538 -0.00265189 -0.00109964)
(0.000516285 -0.00050565 -0.00101367)
(0.000516316 -0.00183154 -0.00139069)
(0.00265189 -0.000673538 -0.00109964)
(0.00221176 -0.00181493 -0.000492791)
(0.00196586 -0.000670377 -0.00020456)
(0.00161956 -0.00114902 -0.000139771)
(0.00109304 -0.000449545 4.57797e-05)
(0.00102559 -0.000496776 0.000182547)
(-0.000309788 0.00655254 6.21466e-05)
(0.000309788 0.00655254 6.21468e-05)
(-0.00102559 -0.000496776 0.000182548)
(-0.00109304 -0.000449546 4.57798e-05)
(-0.00161956 -0.00114902 -0.000139771)
(-0.00196586 -0.000670377 -0.00020456)
(-0.00221176 -0.00181493 -0.000492791)
(-0.00265189 -0.000673538 -0.00109964)
(-0.000516316 -0.00183154 -0.00139069)
(-0.000516285 -0.00050565 -0.00101367)
(0.000673538 -0.00265189 -0.00109964)
(0.000556712 -0.000885003 -0.000554426)
(0.000538829 -0.00174873 -0.000309444)
(0.000338046 -0.00123341 -0.00043955)
(-3.43609e-05 -0.00126212 -7.21733e-05)
(-0.000487627 -0.00140792 0.000126798)
(-0.00148444 -0.00592192 6.04043e-05)
(0.00109328 -0.00544819 0.000353238)
(-0.000611218 0.000622587 0.000268171)
(-0.000863769 4.45256e-05 -0.000109551)
(-0.00144039 -6.406e-05 -9.01385e-05)
(-0.00135014 -0.000541239 -0.000249731)
(-0.00195263 -4.1791e-05 -0.000229424)
(-0.00183154 -0.000516316 -0.00139069)
(0.000773502 0.000992753 -0.000477781)
(-0.000992753 0.000773503 -0.000477781)
(0.00050565 0.000516285 -0.00101367)
(0.000584489 0.000846512 -0.000766826)
(0.0011912 0.000866682 -0.000593828)
(0.00126446 0.000711216 -0.000496365)
(0.000951158 0.000712378 -0.000181757)
(0.000439163 0.000592474 0.000397615)
(-0.000751412 0.00804694 0.000588159)
(0.000751411 0.00804694 0.000588161)
(-0.000439164 0.000592474 0.000397615)
(-0.000951159 0.000712378 -0.000181756)
(-0.00126446 0.000711216 -0.000496365)
(-0.0011912 0.000866682 -0.000593827)
(-0.000584488 0.000846512 -0.000766826)
(-0.000505651 0.000516285 -0.00101367)
(0.000992754 0.000773503 -0.000477781)
(-0.000773502 0.000992754 -0.000477781)
(0.00183154 -0.000516316 -0.00139069)
(0.00195263 -4.17907e-05 -0.000229423)
(0.00135014 -0.00054124 -0.000249731)
(0.00144039 -6.40588e-05 -9.01375e-05)
(0.000863769 4.45252e-05 -0.000109552)
(0.000611218 0.000622589 0.000268173)
(-0.00109328 -0.00544819 0.000353237)
(0.000751411 -0.00804694 0.000588162)
(-0.000439163 -0.000592476 0.000397614)
(-0.000951157 -0.000712377 -0.000181756)
(-0.00126446 -0.000711217 -0.000496365)
(-0.0011912 -0.000866682 -0.000593827)
(-0.000584488 -0.000846513 -0.000766826)
(-0.000505651 -0.000516285 -0.00101367)
(0.000992754 -0.000773503 -0.000477781)
(-0.000773502 -0.000992754 -0.000477781)
(0.00183154 0.000516316 -0.00139069)
(0.00195263 4.17911e-05 -0.000229423)
(0.00135014 0.00054124 -0.000249731)
(0.00144039 6.40595e-05 -9.01373e-05)
(0.000863769 -4.4525e-05 -0.000109551)
(0.000611218 -0.000622588 0.000268173)
(-0.00109328 0.00544819 0.000353239)
(0.00109328 0.00544819 0.000353238)
(-0.000611217 -0.000622588 0.000268172)
(-0.000863769 -4.45253e-05 -0.000109551)
(-0.00144039 6.406e-05 -9.01374e-05)
(-0.00135014 0.000541239 -0.000249731)
(-0.00195263 4.17911e-05 -0.000229423)
(-0.00183154 0.000516316 -0.00139069)
(0.000773502 -0.000992754 -0.000477781)
(-0.000992754 -0.000773502 -0.00047778)
(0.00050565 -0.000516285 -0.00101367)
(0.00058449 -0.000846512 -0.000766826)
(0.0011912 -0.000866682 -0.000593828)
(0.00126446 -0.000711216 -0.000496365)
(0.00095116 -0.000712379 -0.000181757)
(0.000439164 -0.000592473 0.000397616)
(-0.00075141 -0.00804693 0.000588158)
(0.000309792 -0.00655254 6.21481e-05)
(-0.00102559 0.000496773 0.000182546)
(-0.00109304 0.000449546 4.57802e-05)
(-0.00161956 0.00114902 -0.000139772)
(-0.00196586 0.000670377 -0.00020456)
(-0.00221176 0.00181493 -0.000492792)
(-0.00265189 0.000673538 -0.00109964)
(-0.000516316 0.00183154 -0.00139069)
(-0.000516285 0.000505651 -0.00101367)
(0.000673537 0.00265189 -0.00109964)
(0.000556713 0.000885003 -0.000554426)
(0.000538828 0.00174873 -0.000309445)
(0.000338046 0.00123341 -0.00043955)
(-3.43613e-05 0.00126212 -7.21735e-05)
(-0.000487627 0.00140792 0.000126798)
(-0.00148444 0.00592192 6.0405e-05)
(0.00148444 0.00592192 6.04056e-05)
(0.000487627 0.00140792 0.000126798)
(3.43611e-05 0.00126212 -7.21732e-05)
(-0.000338046 0.00123341 -0.00043955)
(-0.000538829 0.00174873 -0.000309444)
(-0.000556712 0.000885003 -0.000554426)
(-0.000673538 0.00265189 -0.00109964)
(0.000516285 0.00050565 -0.00101367)
(0.000516316 0.00183154 -0.00139069)
(0.00265189 0.000673538 -0.00109964)
(0.00221175 0.00181493 -0.000492791)
(0.00196586 0.000670377 -0.000204561)
(0.00161956 0.00114902 -0.000139771)
(0.00109304 0.000449545 4.57787e-05)
(0.00102559 0.000496776 0.000182547)
(-0.000309789 -0.00655254 6.21487e-05)
(6.28038e-06 -0.00740593 -9.06527e-05)
(-0.0013622 -0.00111188 0.000456007)
(-0.000797923 -0.0008705 4.67137e-05)
(-0.00137887 -0.000433576 -0.000123809)
(-0.000970237 -0.000520175 -0.000292033)
(-0.000916335 0.000577906 -0.000219457)
(-0.000885003 0.000556713 -0.000554426)
(-4.17909e-05 0.00195263 -0.000229423)
(-0.000846512 0.000584489 -0.000766825)
(0.00181493 0.00221176 -0.000492791)
(0.000577906 0.000916335 -0.000219457)
(0.00102742 0.00117452 -0.000236559)
(0.000850318 0.000764531 -5.65639e-05)
(0.000643215 0.000359772 -0.000114865)
(0.000213782 0.000117167 1.26676e-05)
(-0.00083052 0.00416983 -0.000261252)
(0.00083052 0.00416984 -0.000261252)
(-0.000213782 0.000117167 1.26674e-05)
(-0.000643214 0.000359772 -0.000114866)
(-0.000850318 0.000764532 -5.65643e-05)
(-0.00102742 0.00117452 -0.000236559)
(-0.000577906 0.000916335 -0.000219457)
(-0.00181493 0.00221176 -0.000492791)
(0.000846512 0.000584489 -0.000766826)
(4.17911e-05 0.00195263 -0.000229423)
(0.000885003 0.000556712 -0.000554426)
(0.000916335 0.000577906 -0.000219457)
(0.000970238 -0.000520176 -0.000292034)
(0.00137887 -0.000433575 -0.000123808)
(0.000797924 -0.000870502 4.6712e-05)
(0.0013622 -0.00111187 0.000456007)
(-6.27776e-06 -0.00740593 -9.06536e-05)
(6.67016e-06 -0.00536342 -0.000364265)
(-0.00116129 -0.000755758 0.000461454)
(-0.000532 2.55061e-05 0.000107183)
(-0.00122551 0.000694088 -5.98525e-05)
(-0.00150943 0.000151417 -6.4132e-05)
(-0.00117452 0.00102742 -0.000236559)
(-0.00174873 0.000538829 -0.000309444)
(-0.00054124 0.00135014 -0.000249731)
(-0.000866682 0.0011912 -0.000593828)
(0.000670377 0.00196586 -0.00020456)
(-0.000520175 0.000970237 -0.000292033)
(0.000151417 0.00150943 -6.4133e-05)
(-0.000578936 0.00102857 -0.000408382)
(-0.00052941 0.00105364 -0.000344306)
(-0.00107293 0.00148234 -0.00048448)
(-0.00217998 0.00313187 -0.00157001)
(0.00217998 0.00313187 -0.00157001)
(0.00107293 0.00148234 -0.00048448)
(0.00052941 0.00105363 -0.000344305)
(0.000578936 0.00102857 -0.000408382)
(-0.000151417 0.00150943 -6.41323e-05)
(0.000520176 0.000970237 -0.000292033)
(-0.000670377 0.00196586 -0.00020456)
(0.000866682 0.0011912 -0.000593828)
(0.000541239 0.00135014 -0.000249731)
(0.00174873 0.000538829 -0.000309445)
(0.00117452 0.00102742 -0.000236559)
(0.00150943 0.000151417 -6.41334e-05)
(0.0012255 0.000694089 -5.98514e-05)
(0.000532001 2.55057e-05 0.00010718)
(0.00116128 -0.000755756 0.000461454)
(-6.66868e-06 -0.00536342 -0.000364263)
(-0.00028941 -0.00562978 -0.000834184)
(-0.00116907 -0.00192521 0.000330996)
(-0.000511019 -0.00116401 -0.000459784)
(-0.00137089 -0.000141146 -0.000220611)
(-0.00102857 -0.000578934 -0.000408381)
(-0.000764532 0.000850318 -5.65646e-05)
(-0.0012334 0.000338047 -0.00043955)
(-6.40595e-05 0.00144039 -9.01375e-05)
(-0.000711216 0.00126446 -0.000496365)
(0.00114902 0.00161956 -0.000139771)
(-0.000433576 0.00137887 -0.000123808)
(0.000694089 0.00122551 -5.98512e-05)
(-0.000141147 0.00137089 -0.00022061)
(-8.77509e-05 0.000972001 0.000200427)
(-0.000150803 0.00188917 0.000136567)
(-0.000721839 0.00660386 -9.48347e-05)
(0.00072184 0.00660386 -9.48333e-05)
(0.000150803 0.00188917 0.000136567)
(8.77516e-05 0.000972002 0.000200427)
(0.000141147 0.00137089 -0.00022061)
(-0.000694088 0.00122551 -5.98529e-05)
(0.000433576 0.00137887 -0.000123809)
(-0.00114902 0.00161956 -0.000139772)
(0.000711217 0.00126446 -0.000496366)
(6.40595e-05 0.00144039 -9.01378e-05)
(0.00123341 0.000338046 -0.000439551)
(0.000764532 0.000850318 -5.65642e-05)
(0.00102857 -0.000578936 -0.000408382)
(0.00137089 -0.000141146 -0.00022061)
(0.000511021 -0.00116401 -0.000459786)
(0.00116907 -0.00192521 0.000330996)
(0.000289409 -0.00562978 -0.000834182)
(-0.000832953 -0.00382681 -0.000791128)
(-0.00121415 -0.00138531 -7.2717e-05)
(-0.000147687 -0.000301053 -4.57847e-05)
(-0.000972002 -8.7751e-05 0.000200426)
(-0.00105363 -0.000529409 -0.000344304)
(-0.000359774 0.000643215 -0.000114866)
(-0.00126212 -3.43608e-05 -7.2173e-05)
(4.45241e-05 0.000863768 -0.000109551)
(-0.000712379 0.000951159 -0.000181757)
(0.000449545 0.00109304 4.57797e-05)
(-0.000870502 0.000797924 4.67129e-05)
(2.5505e-05 0.000532001 0.000107181)
(-0.00116401 0.00051102 -0.000459786)
(-0.000301053 0.000147689 -4.57848e-05)
(-0.00126826 0.000412217 -0.000500408)
(-0.000900818 0.00284612 -0.000321582)
(0.000900819 0.00284612 -0.00032158)
(0.00126826 0.000412217 -0.000500409)
(0.000301052 0.000147688 -4.5784e-05)
(0.00116401 0.000511019 -0.000459784)
(-2.55071e-05 0.000531999 0.000107182)
(0.000870501 0.000797924 4.67125e-05)
(-0.000449547 0.00109304 4.57797e-05)
(0.000712378 0.000951158 -0.000181758)
(-4.45259e-05 0.000863768 -0.000109552)
(0.00126212 -3.4361e-05 -7.21731e-05)
(0.000359773 0.000643215 -0.000114865)
(0.00105364 -0.000529409 -0.000344306)
(0.000972001 -8.77509e-05 0.000200428)
(0.000147691 -0.000301051 -4.5785e-05)
(0.00121414 -0.00138531 -7.27182e-05)
(0.000832953 -0.00382681 -0.000791123)
(-0.00136159 -0.00354212 -0.000344142)
(-0.00172067 -0.00222272 -0.000260133)
(-0.000412216 -0.00126826 -0.000500407)
(-0.00188917 -0.000150802 0.000136567)
(-0.00148234 -0.00107292 -0.000484481)
(-0.000117167 0.000213783 1.26672e-05)
(-0.00140792 -0.000487626 0.000126798)
(0.000622589 0.000611219 0.000268172)
(-0.000592472 0.000439164 0.000397616)
(0.000496778 0.00102559 0.000182548)
(-0.00111187 0.0013622 0.000456008)
(-0.000755755 0.00116129 0.000461455)
(-0.00192521 0.00116907 0.000330995)
(-0.00138531 0.00121414 -7.27184e-05)
(-0.00222272 0.00172067 -0.000260134)
(-0.00196191 0.00331375 -0.00122066)
(0.00196191 0.00331376 -0.00122067)
(0.00222272 0.00172067 -0.00026013)
(0.00138531 0.00121415 -7.27159e-05)
(0.00192521 0.00116907 0.000330995)
(0.000755758 0.00116129 0.000461451)
(0.00111188 0.0013622 0.000456007)
(-0.000496774 0.00102559 0.000182545)
(0.000592475 0.000439164 0.000397614)
(-0.000622586 0.000611217 0.000268172)
(0.00140792 -0.000487627 0.000126797)
(0.000117169 0.000213782 1.26678e-05)
(0.00148234 -0.00107293 -0.000484482)
(0.00188917 -0.000150801 0.000136569)
(0.000412221 -0.00126825 -0.000500408)
(0.00172066 -0.00222272 -0.000260131)
(0.0013616 -0.00354212 -0.00034414)
(-0.00237845 -0.00184515 -0.000156344)
(-0.00331375 -0.00196191 -0.00122067)
(-0.00284611 -0.000900819 -0.000321581)
(-0.00660386 -0.000721837 -9.48317e-05)
(-0.00313187 -0.00217998 -0.00157001)
(-0.00416983 -0.000830519 -0.000261249)
(-0.00592192 -0.00148444 6.04055e-05)
(-0.00544819 -0.00109328 0.000353239)
(-0.00804694 -0.000751412 0.000588159)
(-0.00655254 -0.000309787 6.21469e-05)
(-0.00740593 -6.27793e-06 -9.06518e-05)
(-0.00536342 -6.66839e-06 -0.000364263)
(-0.00562979 0.000289411 -0.000834183)
(-0.00382681 0.000832954 -0.000791124)
(-0.00354212 0.0013616 -0.000344141)
(-0.00184515 0.00237846 -0.000156339)
(0.00184515 0.00237846 -0.000156342)
(0.00354212 0.00136159 -0.000344143)
(0.00382681 0.00083295 -0.000791128)
(0.00562978 0.000289408 -0.000834182)
(0.00536343 -6.6728e-06 -0.000364262)
(0.00740593 -6.28044e-06 -9.06562e-05)
(0.00655254 -0.000309789 6.21433e-05)
(0.00804694 -0.000751412 0.000588158)
(0.0054482 -0.00109328 0.000353239)
(0.00592192 -0.00148444 6.04057e-05)
(0.00416984 -0.000830521 -0.000261253)
(0.00313187 -0.00217998 -0.00157002)
(0.00660386 -0.000721839 -9.48317e-05)
(0.00284612 -0.000900818 -0.000321584)
(0.00331376 -0.0019619 -0.00122067)
(0.00237846 -0.00184515 -0.000156334)
(-0.00237846 0.00184514 -0.00015634)
(-0.00331376 0.00196191 -0.00122067)
(-0.00284612 0.000900818 -0.000321582)
(-0.00660386 0.000721839 -9.48336e-05)
(-0.00313187 0.00217998 -0.00157001)
(-0.00416984 0.00083052 -0.000261252)
(-0.00592192 0.00148444 6.04041e-05)
(-0.0054482 0.00109328 0.000353238)
(-0.00804694 0.000751413 0.000588159)
(-0.00655254 0.000309789 6.21464e-05)
(-0.00740593 6.27907e-06 -9.06523e-05)
(-0.00536343 6.66996e-06 -0.000364264)
(-0.00562978 -0.000289409 -0.000834184)
(-0.00382681 -0.000832953 -0.000791127)
(-0.00354212 -0.00136159 -0.000344143)
(-0.00184515 -0.00237847 -0.000156339)
(0.00184515 -0.00237847 -0.000156332)
(0.00354211 -0.00136158 -0.000344147)
(0.00382681 -0.000832946 -0.000791135)
(0.00562978 -0.000289412 -0.000834182)
(0.00536342 6.66542e-06 -0.000364258)
(0.00740593 6.27703e-06 -9.06518e-05)
(0.00655253 0.000309787 6.21445e-05)
(0.00804694 0.000751411 0.000588156)
(0.00544819 0.00109328 0.000353241)
(0.00592192 0.00148444 6.04077e-05)
(0.00416983 0.000830519 -0.000261252)
(0.00313187 0.00217998 -0.00157001)
(0.00660386 0.000721838 -9.48304e-05)
(0.00284612 0.000900818 -0.000321584)
(0.00331375 0.0019619 -0.00122066)
(0.00237846 0.00184515 -0.000156339)
(-0.00136159 0.00354212 -0.000344142)
(-0.00172067 0.00222272 -0.000260132)
(-0.000412217 0.00126826 -0.000500407)
(-0.00188917 0.000150802 0.000136567)
(-0.00148234 0.00107293 -0.000484479)
(-0.00011717 -0.00021378 1.26674e-05)
(-0.00140792 0.000487628 0.000126797)
(0.000622586 -0.000611217 0.000268172)
(-0.000592474 -0.000439164 0.000397614)
(0.000496774 -0.00102559 0.000182546)
(-0.00111188 -0.0013622 0.000456006)
(-0.000755755 -0.00116129 0.000461454)
(-0.00192521 -0.00116907 0.000330996)
(-0.00138531 -0.00121414 -7.27175e-05)
(-0.00222272 -0.00172066 -0.000260128)
(-0.00196189 -0.00331376 -0.00122068)
(0.00196188 -0.00331376 -0.00122068)
(0.00222273 -0.00172067 -0.000260115)
(0.00138532 -0.00121414 -7.27119e-05)
(0.00192522 -0.00116907 0.000330996)
(0.000755755 -0.00116129 0.000461451)
(0.00111188 -0.0013622 0.000456008)
(-0.000496778 -0.00102559 0.000182548)
(0.000592473 -0.000439163 0.000397616)
(-0.000622589 -0.00061122 0.000268173)
(0.00140792 0.000487626 0.000126798)
(0.000117167 -0.000213783 1.26681e-05)
(0.00148234 0.00107293 -0.000484482)
(0.00188916 0.000150802 0.000136567)
(0.000412219 0.00126826 -0.000500409)
(0.00172067 0.00222272 -0.000260134)
(0.0013616 0.00354212 -0.00034414)
(-0.000832948 0.00382682 -0.000791126)
(-0.00121414 0.00138532 -7.27185e-05)
(-0.000147688 0.00030105 -4.57844e-05)
(-0.000972002 8.77512e-05 0.000200427)
(-0.00105364 0.000529408 -0.000344305)
(-0.000359772 -0.000643214 -0.000114865)
(-0.00126212 3.43608e-05 -7.21733e-05)
(4.4526e-05 -0.000863768 -0.000109552)
(-0.000712379 -0.000951159 -0.000181757)
(0.000449545 -0.00109304 4.57796e-05)
(-0.000870501 -0.000797924 4.67128e-05)
(2.55048e-05 -0.000532 0.000107182)
(-0.00116401 -0.00051102 -0.000459785)
(-0.000301055 -0.000147688 -4.57848e-05)
(-0.00126826 -0.00041222 -0.000500408)
(-0.000900821 -0.00284611 -0.000321579)
(0.000900824 -0.00284611 -0.000321578)
(0.00126826 -0.000412225 -0.000500413)
(0.000301054 -0.000147686 -4.57844e-05)
(0.00116401 -0.00051102 -0.000459785)
(-2.55047e-05 -0.000531999 0.000107182)
(0.000870501 -0.000797924 4.67124e-05)
(-0.000449545 -0.00109304 4.57794e-05)
(0.000712379 -0.000951158 -0.000181757)
(-4.45238e-05 -0.000863769 -0.000109551)
(0.00126212 3.43611e-05 -7.21732e-05)
(0.000359774 -0.000643216 -0.000114866)
(0.00105364 0.000529409 -0.000344305)
(0.000972003 8.77493e-05 0.000200428)
(0.00014769 0.000301053 -4.57848e-05)
(0.00121414 0.00138531 -7.27174e-05)
(0.000832952 0.00382681 -0.000791122)
(-0.000289407 0.00562979 -0.000834185)
(-0.00116907 0.00192521 0.000330996)
(-0.000511018 0.00116401 -0.000459785)
(-0.00137089 0.000141146 -0.00022061)
(-0.00102857 0.000578936 -0.000408382)
(-0.000764532 -0.000850318 -5.65646e-05)
(-0.00123341 -0.000338046 -0.00043955)
(-6.40598e-05 -0.00144039 -9.01376e-05)
(-0.000711217 -0.00126446 -0.000496366)
(0.00114902 -0.00161956 -0.000139772)
(-0.000433576 -0.00137887 -0.000123809)
(0.00069409 -0.00122551 -5.9852e-05)
(-0.000141146 -0.00137089 -0.00022061)
(-8.77488e-05 -0.000972003 0.000200427)
(-0.000150801 -0.00188917 0.000136569)
(-0.000721836 -0.00660386 -9.48363e-05)
(0.00072184 -0.00660386 -9.48286e-05)
(0.000150797 -0.00188916 0.000136567)
(8.77497e-05 -0.000972002 0.000200427)
(0.000141145 -0.00137089 -0.00022061)
(-0.000694089 -0.00122551 -5.98516e-05)
(0.000433575 -0.00137887 -0.000123808)
(-0.00114902 -0.00161956 -0.000139771)
(0.000711216 -0.00126446 -0.000496365)
(6.40597e-05 -0.00144039 -9.01373e-05)
(0.00123341 -0.000338046 -0.00043955)
(0.000764532 -0.000850319 -5.65645e-05)
(0.00102857 0.000578935 -0.000408382)
(0.00137089 0.000141147 -0.00022061)
(0.00051102 0.00116401 -0.000459785)
(0.00116907 0.00192521 0.000330995)
(0.000289411 0.00562978 -0.000834182)
(6.67068e-06 0.00536343 -0.000364266)
(-0.00116129 0.000755758 0.000461455)
(-0.000532 -2.55067e-05 0.000107181)
(-0.00122551 -0.000694089 -5.98513e-05)
(-0.00150943 -0.000151417 -6.41328e-05)
(-0.00117452 -0.00102742 -0.000236559)
(-0.00174873 -0.000538829 -0.000309444)
(-0.000541239 -0.00135014 -0.000249731)
(-0.000866682 -0.0011912 -0.000593828)
(0.000670377 -0.00196586 -0.00020456)
(-0.000520175 -0.000970237 -0.000292033)
(0.000151417 -0.00150943 -6.41326e-05)
(-0.000578936 -0.00102857 -0.000408382)
(-0.000529411 -0.00105364 -0.000344305)
(-0.00107293 -0.00148234 -0.000484481)
(-0.00217998 -0.00313187 -0.00157001)
(0.00217998 -0.00313187 -0.00157002)
(0.00107293 -0.00148235 -0.000484482)
(0.00052941 -0.00105364 -0.000344306)
(0.000578937 -0.00102857 -0.000408382)
(-0.000151416 -0.00150943 -6.41327e-05)
(0.000520176 -0.000970237 -0.000292033)
(-0.000670377 -0.00196586 -0.00020456)
(0.000866682 -0.0011912 -0.000593828)
(0.00054124 -0.00135014 -0.000249731)
(0.00174873 -0.000538829 -0.000309444)
(0.00117452 -0.00102742 -0.000236559)
(0.00150943 -0.000151417 -6.41326e-05)
(0.00122551 -0.000694089 -5.98516e-05)
(0.000532001 -2.55059e-05 0.000107182)
(0.00116128 0.000755754 0.000461455)
(-6.66767e-06 0.00536342 -0.000364263)
(6.27942e-06 0.00740594 -9.0655e-05)
(-0.0013622 0.00111188 0.000456007)
(-0.000797923 0.000870501 4.67129e-05)
(-0.00137887 0.000433576 -0.000123808)
(-0.000970237 0.000520176 -0.000292033)
(-0.000916335 -0.000577906 -0.000219458)
(-0.000885003 -0.000556712 -0.000554426)
(-4.17908e-05 -0.00195263 -0.000229423)
(-0.000846513 -0.000584489 -0.000766826)
(0.00181493 -0.00221176 -0.000492791)
(0.000577906 -0.000916335 -0.000219458)
(0.00102742 -0.00117452 -0.000236559)
(0.000850318 -0.000764531 -5.65645e-05)
(0.000643215 -0.000359772 -0.000114866)
(0.000213782 -0.000117166 1.26677e-05)
(-0.00083052 -0.00416984 -0.000261251)
(0.000830521 -0.00416983 -0.000261251)
(-0.000213782 -0.000117167 1.26684e-05)
(-0.000643215 -0.000359772 -0.000114866)
(-0.000850318 -0.000764531 -5.6564e-05)
(-0.00102742 -0.00117452 -0.000236559)
(-0.000577906 -0.000916335 -0.000219457)
(-0.00181493 -0.00221176 -0.000492791)
(0.000846512 -0.000584489 -0.000766825)
(4.1791e-05 -0.00195263 -0.000229423)
(0.000885003 -0.000556713 -0.000554426)
(0.000916335 -0.000577906 -0.000219457)
(0.000970237 0.000520175 -0.000292033)
(0.00137887 0.000433576 -0.000123808)
(0.000797924 0.000870501 4.67129e-05)
(0.0013622 0.00111188 0.000456007)
(-6.27749e-06 0.00740593 -9.06524e-05)
(0.00030979 0.00655254 6.21462e-05)
(-0.00102559 -0.000496774 0.000182547)
(-0.00109304 -0.000449546 4.578e-05)
(-0.00161956 -0.00114902 -0.000139771)
(-0.00196586 -0.000670377 -0.00020456)
(-0.00221176 -0.00181493 -0.000492791)
(-0.00265189 -0.000673538 -0.00109964)
(-0.000516316 -0.00183154 -0.00139069)
(-0.000516285 -0.000505651 -0.00101367)
(0.000673538 -0.00265189 -0.00109964)
(0.000556712 -0.000885003 -0.000554426)
(0.000538829 -0.00174873 -0.000309444)
(0.000338046 -0.00123341 -0.00043955)
(-3.4361e-05 -0.00126212 -7.21729e-05)
(-0.000487627 -0.00140792 0.000126797)
(-0.00148444 -0.00592192 6.04029e-05)
(0.00148444 -0.00592192 6.04049e-05)
(0.000487627 -0.00140792 0.000126798)
(3.43611e-05 -0.00126212 -7.21733e-05)
(-0.000338046 -0.00123341 -0.00043955)
(-0.000538828 -0.00174873 -0.000309444)
(-0.000556713 -0.000885003 -0.000554426)
(-0.000673538 -0.00265189 -0.00109964)
(0.000516285 -0.000505651 -0.00101367)
(0.000516316 -0.00183154 -0.00139069)
(0.00265189 -0.000673538 -0.00109964)
(0.00221176 -0.00181493 -0.000492791)
(0.00196586 -0.000670377 -0.00020456)
(0.00161956 -0.00114902 -0.000139771)
(0.00109304 -0.000449545 4.57797e-05)
(0.00102559 -0.000496777 0.000182548)
(-0.000309787 0.00655253 6.21476e-05)
(0.000751412 0.00804694 0.00058816)
(-0.000439164 0.000592474 0.000397615)
(-0.000951158 0.000712379 -0.000181757)
(-0.00126446 0.000711216 -0.000496365)
(-0.0011912 0.000866682 -0.000593828)
(-0.000584489 0.000846512 -0.000766825)
(-0.000505651 0.000516285 -0.00101367)
(0.000992753 0.000773503 -0.000477781)
(-0.000773503 0.000992753 -0.000477781)
(0.00183154 -0.000516316 -0.00139069)
(0.00195263 -4.1791e-05 -0.000229423)
(0.00135014 -0.000541239 -0.000249731)
(0.00144039 -6.40597e-05 -9.01377e-05)
(0.000863768 4.45254e-05 -0.000109551)
(0.000611218 0.000622587 0.000268172)
(-0.00109328 -0.00544819 0.000353239)
(0.00109328 -0.00544819 0.000353237)
(-0.000611218 0.000622588 0.000268172)
(-0.000863769 4.45252e-05 -0.000109551)