/*--------------------------------*- C++ -*----------------------------------*\
| =========                 |                                                 |
| \\      /  F ield         | OpenFOAM: The Open Source CFD Toolbox           |
|  \\    /   O peration     | Version:  v2006                                 |
|   \\  /    A nd           | Website:  www.openfoam.com                      |
|    \\/     M anipulation  |                                                 |
\*---------------------------------------------------------------------------*/
FoamFile
{
    version     2.0;
    format      ascii;
    class       volScalarField;
    location    "0.0391000018";
    object      alphat;
}
// * * * * * * * * * * * * * * * * * * * * * * * * * * * * * * * * * * * * * //

dimensions      [1 -1 -1 0 0 0 0];


internalField   nonuniform List<scalar> 
14400
(
5.30285579e-06
0.000310045411
0.000411259559
0.000490177542
0.000562211792
0.000632515816
0.000704572529
0.00077814089
0.00085497826
0.000932305178
0.00101187898
0.00108861658
0.00116450312
0.00123168414
0.00129194017
0.00133362833
0.00135977903
0.00135900583
0.0013346127
0.00127224079
0.00117263165
0.00101855151
0.000804803987
0.000515842514
2.83676746e-08
6.22284409e-10
1.24735291e-12
1.05610073e-10
2.47140555e-11
4.56547857e-15
2.31882838e-12
1.69700652e-13
1.9673189e-12
6.64779732e-10
1.20926058e-06
2.96968695e-05
4.17252001e-05
8.0732397e-06
1.76833505e-08
1.87018419e-06
3.23552927e-06
1.57927297e-05
7.8287377e-06
1.14663269e-05
4.42652761e-07
8.10846882e-07
2.26623394e-06
6.72189319e-08
3.96776102e-10
4.90767392e-08
8.93176893e-09
4.36758396e-11
2.83147455e-10
2.8071165e-08
5.27838923e-07
5.35042069e-07
1.51634555e-07
1.43609104e-07
6.86696927e-07
7.18929238e-07
3.56258993e-06
2.45413455e-06
3.33702287e-06
3.51777923e-06
3.61766128e-06
3.65960793e-06
3.7134858e-06
3.25109599e-06
3.99573544e-06
2.72564272e-06
4.18285583e-06
3.81921271e-06
4.24595293e-06
3.97493109e-06
4.17586317e-06
4.26734661e-06
3.68941195e-06
3.65618947e-06
3.77510865e-06
3.73645702e-06
2.68997022e-05
0.000541578265
0.000692835635
0.000808232515
0.000913241362
0.00101821715
0.00113200822
0.00125789555
0.00140022168
0.00155738361
0.00173248697
0.00192156192
0.00212972732
0.00235001127
0.00258859553
0.00283559013
0.00309818396
0.00335960433
0.00362911638
0.00388384434
0.00413485018
0.0043522048
0.00454873107
0.00468734767
0.00478065781
0.00478585668
0.00471209828
0.00450863786
0.00418407967
0.00369110026
0.00303749513
0.00216908273
0.00112203402
5.55145837e-05
3.73600043e-07
4.96797292e-09
6.65336988e-10
2.19998498e-05
0.000139968527
7.36017932e-07
1.00311082e-05
1.46375604e-06
1.71463933e-06
6.30385875e-07
2.82464919e-05
1.66282865e-05
3.44896383e-05
4.42898768e-05
8.3942178e-05
5.59850972e-05
5.63354687e-05
7.18477368e-05
1.66242201e-05
2.20356826e-05
4.69635305e-05
5.92859462e-05
2.81830072e-05
1.6600332e-05
3.83323987e-06
5.8271759e-06
7.54044993e-06
7.9077921e-06
3.634566e-06
4.52978089e-06
3.40901171e-06
4.15045887e-06
3.543377e-06
4.59869831e-06
3.84032788e-06
4.9775917e-06
4.02703167e-06
4.6270794e-06
3.86422219e-06
3.93653347e-06
4.33238909e-06
2.54266366e-06
3.42036654e-06
3.80073976e-06
3.60791084e-06
3.77939551e-06
2.23400597e-05
0.000509512236
0.000653414911
0.000766283409
0.000873246125
0.000985661537
0.0011101785
0.00125037067
0.00140921311
0.0015879804
0.00178888166
0.00201217029
0.00225997496
0.00253142802
0.00282856685
0.00314888188
0.00349410744
0.00385944176
0.00424600456
0.00464590996
0.00505907879
0.00547346885
0.00588673448
0.00628125899
0.00665076902
0.00697039848
0.00722775025
0.00738909869
0.00743365718
0.00731816598
0.00701247218
0.00646660735
0.00564831415
0.00452873556
0.00315872359
0.0015146523
0.000146457496
7.53419375e-07
2.61838553e-08
4.78495206e-05
5.50637158e-07
6.77606904e-07
2.67767649e-07
5.12743681e-06
2.44111097e-07
8.19666009e-06
3.90060456e-06
2.16921057e-09
4.74470026e-12
2.60032809e-13
5.1296113e-12
5.6147305e-10
6.99365184e-06
1.36203524e-05
1.52144789e-06
2.50083608e-07
3.36893554e-06
3.52544593e-06
7.32341676e-06
8.11124468e-06
3.55156526e-06
1.77849073e-06
4.15269849e-06
3.74319081e-06
3.65239091e-06
3.11434667e-06
3.52496578e-06
3.6286101e-06
3.04853192e-06
3.71964462e-06
3.24949498e-06
2.44306058e-06
2.8246778e-06
2.6182641e-06
1.72559499e-06
3.29212281e-06
4.05050756e-06
3.57723799e-06
3.77244867e-06
3.67199889e-06
1.70134615e-05
0.000466686411
0.00060039009
0.000707023658
0.000810611998
0.000921623981
0.00104612531
0.00118707451
0.00134758214
0.00152879669
0.00173385238
0.00196309021
0.00222035176
0.00250483119
0.00282115493
0.00316656385
0.0035464122
0.0039549409
0.004398174
0.00486616699
0.00536553986
0.00588077224
0.00641873701
0.00695654837
0.00750036092
0.00801761254
0.00851186046
0.00893814515
0.00929446957
0.00952071504
0.00960533378
0.00947138708
0.00909428689
0.00838483361
0.00731287969
0.00580711805
0.0039007802
0.00166803495
1.8800276e-05
1.72409079e-06
1.86118041e-05
1.67627742e-05
3.13030551e-05
8.03562113e-07
2.12874658e-05
1.94039262e-07
1.82235002e-08
1.99589087e-05
9.77583371e-05
9.04435573e-05
0.000124652756
8.09245113e-05
2.17785622e-05
4.56485664e-07
2.79080915e-08
4.49135847e-07
1.70817201e-06
4.02039453e-06
4.25865559e-06
4.01930862e-06
6.88811583e-07
3.20073702e-06
3.91255015e-06
3.77242451e-06
4.5543716e-06
4.16640632e-06
4.44001658e-06
4.00575398e-06
2.89436221e-06
4.54072516e-06
2.50920081e-06
3.10543104e-06
3.51989596e-06
3.28543051e-06
4.96427728e-06
5.61024144e-06
3.76909458e-06
3.77906327e-06
3.60349536e-06
3.6094592e-06
1.28847631e-05
0.000427190847
0.000551768849
0.000653013845
0.000753722702
0.000863387014
0.000987127273
0.00112751783
0.00128733942
0.00146795522
0.00167252297
0.00190200912
0.00216047948
0.00244817791
0.00277013548
0.00312510276
0.00351900714
0.0039480335
0.00441889228
0.0049239006
0.0054704818
0.00604560041
0.00665728747
0.00728536114
0.00793797885
0.00858543043
0.0092347003
0.0098434316
0.0104149675
0.0108906122
0.0112661537
0.0114628274
0.0114635541
0.0111676997
0.0105413164
0.00947066977
0.00791838172
0.00581577981
0.00335093651
3.47101781e-10
1.12362701e-12
2.56734407e-06
2.09763234e-07
1.7018987e-05
8.80205335e-07
2.95182308e-05
2.31519167e-05
8.07937964e-08
1.06412222e-11
1.23869221e-11
1.78563259e-11
3.76053862e-11
2.8349594e-07
2.15261514e-05
5.72147948e-05
6.74430675e-05
1.53251887e-05
9.66156394e-06
3.28425035e-06
1.80575283e-06
6.13390711e-06
4.33607851e-06
4.08388416e-06
3.51362878e-06
5.15968799e-06
3.61473417e-06
4.13985306e-06
2.58267538e-06
5.04892506e-06
3.42825378e-06
4.35697179e-06
5.60964271e-06
2.73902859e-06
5.71830728e-06
5.69231275e-06
3.15686349e-06
3.81783073e-06
3.73155948e-06
3.74480578e-06
3.81206931e-06
9.76697151e-06
0.000391114711
0.000507671342
0.000604503387
0.000702973502
0.000811562691
0.000934302516
0.00107370948
0.00123184038
0.00141082652
0.00161294815
0.00184075013
0.00209690854
0.00238431854
0.00270584042
0.0030643901
0.00346257669
0.00390277573
0.00438670361
0.00491542054
0.00548898027
0.0061062152
0.00676470825
0.00745998832
0.00818620266
0.00893401655
0.00969263699
0.0104453602
0.0111740392
0.0118508875
0.0124469226
0.0129183762
0.0132208559
0.0132890517
0.0130582607
0.0124385628
0.0113456783
0.00968069859
0.0073848154
0.00445453677
0.000830102331
4.89148356e-11
1.03220018e-05
1.34092988e-06
4.08766055e-06
3.89108116e-06
1.88744329e-05
3.99864752e-05
0.000156148416
0.000173706801
0.000153591647
0.000136368013
6.89086228e-05
2.73498771e-06
2.60452305e-09
4.30949679e-12
2.03844324e-11
6.39323714e-08
1.98418483e-06
5.54909105e-06
2.67742206e-06
4.99747128e-06
3.46714725e-06
3.60642128e-06
2.77967538e-06
4.2563412e-06
3.06556185e-06
4.5329188e-06
3.74274036e-06
2.82753191e-06
6.19116413e-06
3.3114444e-06
5.80863396e-06
3.92376262e-06
2.08366216e-06
3.53241899e-06
3.36234524e-06
3.79187249e-06
3.77069435e-06
3.73558452e-06
7.58917132e-06
0.000360922198
0.000471114497
0.00056494615
0.000662305273
0.000770618993
0.000892870941
0.00103165202
0.00118822306
0.0013656647
0.00156504231
0.00179075566
0.00204344644
0.00232915805
0.0026474926
0.0030064302
0.00340356692
0.00384905289
0.00433708115
0.0048801429
0.00546719575
0.00611322316
0.00679980529
0.00754459987
0.00831945617
0.00914467277
0.00997965283
0.0108464256
0.0116885961
0.0125273649
0.013286523
0.0139816067
0.0145122683
0.0148808599
0.0149589015
0.014725669
0.0140237236
0.0128020286
0.0108901497
0.00822284683
0.00453323058
0.000314089728
5.27016476e-06
3.26255946e-06
8.52950862e-07
2.77975568e-06
1.35003059e-06
4.46958227e-10
2.18772747e-12
1.12318346e-11
5.64190542e-11
6.26515528e-11
2.64732172e-07
4.14032423e-07
2.42577969e-05
6.00411501e-05
2.56376304e-05
9.24987211e-06
1.19651963e-05
4.59055928e-06
4.25173934e-06
2.51201117e-06
3.13095127e-06
3.44825448e-06
3.29660108e-06
4.59186549e-06
3.60903441e-06
4.06021581e-06
3.23297164e-06
4.2010792e-06
2.01321554e-06
3.56752946e-06
3.92066698e-06
2.5424998e-06
2.94215308e-06
4.29381651e-06
3.87479912e-06
3.81912426e-06
3.89325893e-06
3.76196065e-06
5.99398957e-06
0.00033417645
0.000439049104
0.000530755222
0.000627788694
0.000735862142
0.000858092952
0.000995536385
0.00115117399
0.00132552887
0.00152315241
0.00174388343
0.00199446754
0.00227332974
0.00259008701
0.00294065316
0.00333833
0.00377491994
0.00426833342
0.00480400238
0.00540548165
0.0060488817
0.00676462455
0.00751596228
0.00834162647
0.00918800714
0.0101034971
0.0110130624
0.0119751973
0.0128881585
0.013819003
0.0146334454
0.015402499
0.0159539689
0.016353635
0.0163880528
0.0161029947
0.0152466441
0.0138273901
0.0115775463
0.00845020774
0.0042281605
1.21061873e-06
5.08756624e-14
1.84707048e-06
2.51320223e-07
1.29029033e-05
2.43782564e-05
0.00017605024
0.000191612778
0.000195693338
0.000126397912
5.13717128e-06
7.37197722e-07
5.54057377e-06
1.6725576e-06
1.93857307e-05
6.75925158e-06
1.1569254e-05
1.21903789e-06
9.14585265e-07
3.1807597e-06
4.48203523e-06
2.88790141e-06
3.5971749e-06
2.77936003e-06
4.11571016e-06
3.08397341e-06
3.50752528e-06
4.95335236e-06
3.15534163e-06
2.44908763e-06
2.97283037e-06
3.67819825e-06
6.28400288e-06
5.24256076e-06
4.2898152e-06
3.63763937e-06
3.81806002e-06
3.71488512e-06
4.79564935e-06
0.000310394733
0.00041106317
0.000501829668
0.000599089427
0.000707888659
0.000829936691
0.000967460801
0.00112140902
0.00129510714
0.00148928306
0.00170890827
0.00195406353
0.00223183834
0.00254095159
0.00289121334
0.0032789553
0.00371736689
0.00419890232
0.00474080126
0.00532958119
0.00598718108
0.0066915839
0.00747006343
0.0082891043
0.00918184943
0.0101001091
0.0110828641
0.0120637836
0.0130861527
0.0140615872
0.0150335362
0.0158873259
0.0166588309
0.0172028188
0.0175356069
0.0174775324
0.0170095665
0.0159166398
0.0141318881
0.0114212498
0.00769711462
0.00211588703
0.000141330293
1.47991417e-08
2.96860294e-06
1.11717784e-10
2.60612662e-08
3.54195062e-15
1.73564129e-14
1.01937941e-09
3.08477408e-09
4.59723893e-06
6.44717759e-05
7.07229676e-06
8.05970376e-07
5.16760635e-06
1.66746662e-05
1.39307592e-06
4.07902606e-06
9.44942422e-06
7.1991698e-06
3.96476365e-06
5.1463894e-06
4.16388536e-06
4.61525542e-06
3.6895583e-06
4.18884028e-06
3.79004026e-06
2.74525746e-06
4.97769902e-06
5.73536782e-06
4.26004497e-06
4.53190028e-06
4.87500542e-06
3.59316202e-06
3.76906452e-06
3.93535416e-06
3.79624207e-06
3.74171108e-06
3.7727167e-06
0.000286027059
0.000383012492
0.000473076032
0.000570777046
0.000679729238
0.000801840075
0.000938369623
0.00109158138
0.00126297123
0.00145587036
0.00167187385
0.00191558178
0.00218835844
0.0024963628
0.0028402378
0.00322800248
0.0036588119
0.00414279384
0.00467643923
0.00527212898
0.00592202942
0.00664081701
0.00741422889
0.00825923999
0.00915271881
0.0101138465
0.011107815
0.0121553776
0.0132065384
0.0142816838
0.0153109941
0.0163103657
0.0171842538
0.0179369452
0.0184400506
0.0186751455
0.0184732973
0.0177783078
0.0163760723
0.014160553
0.0108798141
0.00622215744
0.000968858628
0.000111740419
1.31738513e-05
2.22145934e-05
3.48060539e-06
0.000188917124
0.000183520911
0.000131455745
5.83405354e-05
1.33956995e-05
2.20842596e-07
1.90143009e-05
5.29641262e-05
2.08176483e-05
1.71192608e-05
2.42952128e-06
5.15543044e-06
9.1277792e-06
2.85451477e-06
7.404878e-06
3.215263e-06
6.3820408e-06
2.96726372e-06
5.93303155e-06
3.55222167e-06
7.04881363e-06
4.16266089e-06
4.84257686e-06
6.43593979e-06
4.79789834e-06
6.04087233e-06
3.12941669e-06
3.40497288e-06
3.793182e-06
3.89935794e-06
3.89194989e-06
3.73224454e-06
2.95809089e-06
0.000262867231
0.000356835728
0.000446845774
0.000545005485
0.000654303694
0.000776044506
0.000912053507
0.00106381225
0.00123407119
0.00142459491
0.00163923028
0.00187978102
0.00215143158
0.00245569638
0.00279938759
0.00318320438
0.00361584588
0.00409634216
0.00463543124
0.00522916874
0.00589032437
0.0066101937
0.00740344048
0.00825444589
0.00917956797
0.0101538883
0.011195046
0.0122660975
0.0133847209
0.0144984782
0.0156221428
0.0166831329
0.017687882
0.0185378006
0.019222146
0.0196089528
0.0196573403
0.0191933232
0.0181297719
0.0162458187
0.0134000181
0.00933950094
0.00312073552
0.000358400134
2.12468635e-05
3.72500899e-05
1.32811602e-05
5.67038735e-10
2.64226373e-06
5.73632838e-05
4.09724677e-05
1.8717146e-05
1.4793246e-05
6.3908904e-07
1.71395826e-06
5.56957088e-06
1.24062784e-05
2.10693281e-05
1.18007922e-05
2.72776309e-06
2.98191484e-06
2.47017744e-06
4.7202692e-06
3.75984213e-06
4.00673733e-06
3.22309759e-06
5.63789717e-06
3.29390038e-06
5.94093956e-06
3.94706508e-06
1.90335383e-06
4.25766551e-06
3.71786159e-06
3.07264864e-06
3.84866247e-06
3.81679345e-06
3.91867001e-06
3.89987839e-06
3.85037806e-06
2.3281277e-06
0.000240951918
0.00033246519
0.000422607509
0.000521130564
0.000630170718
0.00075111676
0.000885549343
0.00103543808
0.00120295469
0.00139073446
0.00160151859
0.00183863063
0.0021053665
0.00240578233
0.0027436653
0.00312377362
0.00355018893
0.00402815871
0.00456160321
0.00515575033
0.00581355812
0.00653935819
0.00733401543
0.00819976597
0.00913407402
0.010135643
0.0111971525
0.0123119122
0.0134660741
0.0146446275
0.0158244838
0.0169775388
0.0180672399
0.0190453054
0.0198555035
0.0204195429
0.0206526026
0.0204337897
0.0196376756
0.0180883674
0.015610158
0.0119600352
0.00656156119
0.000449498428
3.68459666e-06
3.08243232e-07
2.97822021e-07
0.000190927483
8.05818969e-05
4.58724295e-07
8.6964008e-06
5.92474242e-09
6.86206241e-09
2.33137688e-07
1.05423573e-06
1.12252101e-10
1.99464569e-10
6.40470539e-06
4.48861335e-06
3.09626599e-06
5.00860385e-06
3.60345913e-06
4.39785605e-06
3.14917196e-06
3.86787425e-06
4.04316948e-06
3.36493624e-06
4.93584939e-06
1.77078193e-06
4.19406377e-06
7.58701142e-06
3.21889278e-06
3.1443913e-06
3.80557133e-06
3.68829364e-06
3.98753374e-06
3.78877674e-06
3.82658739e-06
3.83606876e-06
1.89498213e-06
0.000222977911
0.000313194448
0.000404460984
0.000503891452
0.000613567062
0.000734095892
0.000868401854
0.00101657202
0.00118360657
0.00136827995
0.00157861643
0.00181095649
0.00207774189
0.00237132968
0.00271045284
0.00308127722
0.00351125651
0.00397722175
0.00451840236
0.00509791029
0.00577050008
0.00647968856
0.00730027058
0.00814876696
0.00912535143
0.0101109093
0.011236957
0.0123393206
0.0135865367
0.014759587
0.016067578
0.0172271819
0.0184870379
0.0194919282
0.0205214803
0.021145299
0.0216541502
0.0215471258
0.0210903669
0.0197300495
0.0176550991
0.0142891749
0.00961486339
0.0026544411
0.000337591217
3.41226143e-06
2.56283049e-06
2.14434973e-07
0.000198893502
0.000184148688
3.96283094e-05
4.34443568e-05
3.85865405e-05
9.28140467e-05
0.000130892092
1.63371876e-05
1.37367678e-06
1.06118655e-07
5.50350725e-07
1.72611334e-06
5.55419975e-06
2.60941065e-06
3.65106586e-06
2.24005855e-06
4.54045069e-06
2.63039375e-06
4.21941942e-06
2.56741085e-06
5.91546175e-06
2.95486002e-06
1.2850639e-06
3.39174032e-06
2.38685086e-06
4.84973288e-06
3.43094029e-06
3.71483827e-06
3.64206356e-06
3.81144717e-06
3.84428061e-06
1.51099838e-06
0.000203833615
0.000292908389
0.000384995335
0.000484925297
0.000594182967
0.000714043129
0.000846621592
0.000993427607
0.00115753974
0.0013404542
0.00154652204
0.00177695789
0.00203783239
0.00232968453
0.00266086454
0.00303061972
0.00345020335
0.00391660055
0.0044445859
0.00502742263
0.00568391304
0.00640155471
0.00720347673
0.00806885652
0.0090251841
0.010040554
0.0111464404
0.0122972427
0.0135270455
0.0147741838
0.0160717724
0.0173398078
0.0186032422
0.0197614944
0.0208195471
0.0216538469
0.0222326533
0.0224056806
0.0220838169
0.0210823605
0.0192354335
0.0163056209
0.0120387248
0.00537578789
0.00131706891
0.000114504571
3.75711655e-05
0.000161503652
5.36992306e-06
1.14373455e-05
5.76154062e-05
1.0083599e-05
5.78623659e-06
1.63716466e-06
1.76448228e-05
4.14463949e-06
2.89078245e-06
5.22352284e-08
2.22217577e-06
8.99929473e-06
3.40931597e-06
2.27993033e-06
4.29314879e-06
2.89025105e-06
3.78513285e-06
2.88769473e-06
3.6463093e-06
2.47966819e-06
2.775494e-06
4.46422625e-06
4.17225782e-06
3.67986091e-06
3.67842006e-06
3.62721809e-06
2.98268302e-06
3.62389424e-06
3.59234674e-06
3.60350693e-06
3.80363322e-06
1.22619417e-06
0.000187032528
0.000275828109
0.000369238104
0.000469971332
0.000579181773
0.000698818852
0.000830271446
0.000976428247
0.00113851635
0.00132075035
0.00152385225
0.0017539562
0.00201077721
0.00230316885
0.002629038
0.00300098835
0.00341385498
0.00388529137
0.00440508482
0.00499755477
0.00564442844
0.00637874094
0.00716977435
0.00806204445
0.00900636932
0.0100627107
0.0111555439
0.0123659061
0.0135817156
0.0149123471
0.0161957546
0.0175777969
0.0188292856
0.0201401072
0.0211938803
0.0222283417
0.0228205853
0.0232495098
0.0229749262
0.0222881354
0.0205443246
0.0179846944
0.0139113011
0.00806914819
0.000835349884
2.24895415e-05
2.03226284e-07
4.99542457e-05
1.07669503e-05
1.13360831e-06
7.40139233e-10
1.07521745e-11
2.96182772e-06
1.23514405e-06
4.50210246e-11
6.73811215e-10
6.09441262e-11
2.75733118e-07
2.83757202e-06
1.09151494e-06
2.52210214e-06
5.11565269e-06
3.25929333e-06
3.60748535e-06
3.99653618e-06
4.27302053e-06
3.12648852e-06
4.64688872e-06
2.93941134e-06
2.7868389e-06
4.82006906e-06
4.1808814e-06
4.39410284e-06
3.12778961e-06
3.53683255e-06
3.55311238e-06
3.50124993e-06
3.66869938e-06
3.74191343e-06
9.78424187e-07
0.000169358596
0.000257915171
0.000351897083
0.000452739763
0.000560478988
0.000679329962
0.00080745577
0.000952886164
0.0011094372
0.00129179404
0.00148633638
0.00171838537
0.0019624581
0.00225998408
0.00256738391
0.00294967157
0.00333644214
0.0038263916
0.00431020085
0.00493366465
0.00553210632
0.0063158831
0.00704323692
0.00801125098
0.00887361044
0.0100413142
0.0110306468
0.0123981737
0.0134859406
0.0150298579
0.016159314
0.0178206625
0.0188949731
0.0205599003
0.0214231779
0.0228930182
0.0233025234
0.0242506141
0.0238380108
0.0237505727
0.0219695539
0.0200756776
0.0161198215
0.011201997
0.00315557472
0.000737688793
0.000287633952
7.09219769e-05
0.000283728571
0.000255500682
0.000126953364
7.44602233e-05
1.30791885e-05
5.41096202e-05
0.000153179149
7.57072301e-05
9.23844745e-05
6.45177592e-06
3.35691684e-06
4.24019725e-06
3.69243533e-06
4.07360636e-06
3.4649779e-06
4.35131673e-06
3.39403696e-06
2.96064579e-06
2.95344075e-06
2.91004096e-06
4.52925836e-06
3.89648357e-06
2.40063792e-06
3.78284532e-06
4.37908131e-06
3.00538817e-06
3.68109635e-06
3.64605245e-06
3.65984151e-06
3.61898828e-06
3.70736163e-06
8.11440015e-07
0.000155397149
0.000244685213
0.000340179949
0.000441580837
0.000549228194
0.000667597917
0.000794789657
0.00093917432
0.00109414412
0.00127505581
0.00146734156
0.00169761252
0.00193864139
0.00223412997
0.00253756386
0.00291769568
0.00329948443
0.00378745763
0.00426531924
0.00488757035
0.00547945928
0.00626381216
0.00698488313
0.00795684595
0.00881476358
0.00999184471
0.0109808979
0.0123654253
0.0134601833
0.0150306575
0.0161784696
0.0178773728
0.0189870585
0.0207017328
0.0216251636
0.0231586619
0.0236630097
0.024692855
0.0244208689
0.0244429254
0.0228567759
0.0211133905
0.0173926884
0.0128132955
0.00466151634
0.000417830457
7.37556085e-06
4.5752162e-11
2.27321992e-11
4.27523416e-10
3.56944876e-05
5.53669545e-09
1.30934271e-10
1.85450769e-08
7.24165913e-13
5.56698836e-06
8.16554621e-06
1.61221482e-05
9.29892569e-06
9.96323784e-06
3.35534408e-06
3.83650784e-06
3.35245154e-06
5.42674878e-06
3.03082606e-06
5.35125092e-06
2.84964454e-06
5.30590868e-06
2.85786767e-06
5.02665764e-06
5.96179637e-06
3.31039995e-06
3.91337603e-06
3.95183244e-06
4.03046515e-06
3.73933454e-06
3.7862964e-06
3.68467429e-06
3.67361893e-06
6.55009677e-07
0.000139882704
0.000229602993
0.000325833265
0.000426762437
0.000533610946
0.000650006239
0.000775926469
0.000917092173
0.001070852
0.001247021
0.00143862618
0.00166212104
0.00190361327
0.00218959265
0.00249553704
0.00286254704
0.00325025212
0.0037204449
0.00420967036
0.00480831816
0.00542002524
0.00617375674
0.00692737339
0.00786055529
0.00876946312
0.00989856354
0.0109641692
0.0122905988
0.0134957539
0.0149974915
0.0162988746
0.0179192886
0.0192359716
0.0208663214
0.0220607132
0.0235132177
0.0243615499
0.0253311988
0.0254807671
0.0254933616
0.0244024211
0.0227455607
0.0195993398
0.0153100599
0.0080168187
0.00259727081
0.000501032542
0.000266492488
0.000296152343
0.000308934003
3.31861613e-05
0.000108755788
0.00011795434
0.000113279148
0.000131615668
5.52484037e-05
8.66767774e-06
1.80204353e-06
8.97790488e-06
6.38584064e-06
7.05133221e-06
4.0735346e-06
3.24030644e-06
4.66080518e-06
3.57223018e-06
3.81204749e-06
4.27749127e-06
3.13554429e-06
4.56414947e-06
2.17171231e-06
3.09230713e-06
3.57319114e-06
2.70350877e-06
4.09972294e-06
3.83751647e-06
3.74298266e-06
3.8702648e-06
3.62581808e-06
3.70723662e-06
5.62920265e-07
0.000127100536
0.000218034167
0.000315447876
0.000416240518
0.000523035208
0.000637864226
0.000763752393
0.000901905894
0.00105640577
0.00122756562
0.00142150424
0.00163709449
0.00188360921
0.00215752641
0.00247272636
0.00282180783
0.00322518898
0.00366932089
0.00418371332
0.00474522101
0.00539580886
0.00609757406
0.00690940308
0.00777115351
0.00876472855
0.00979738472
0.0109826022
0.0121813139
0.0135504882
0.0148869375
0.0164065569
0.017819143
0.0194175277
0.0207961512
0.0223426062
0.0235046895
0.0247767802
0.0254329029
0.0260681364
0.0257745843
0.0252021198
0.0232925826
0.0206431642
0.0160887227
0.0097386834
0.00198605326
0.000141577931
0.000129444283
0.00011094322
4.26869804e-07
9.46431792e-05
4.96189322e-06
1.89060934e-07
2.07789204e-09
1.30508268e-05
5.79465282e-05
3.27412789e-05
1.67585099e-05
3.07006798e-06
3.32279008e-07
6.00705238e-06
5.29588203e-06
3.36989823e-06
4.91929313e-06
3.37006809e-06
5.23884106e-06
3.0295618e-06
5.07664916e-06
2.79697339e-06
5.3213252e-06
3.31470186e-06
3.31259926e-06
3.10896598e-06
4.35904102e-06
4.01464688e-06
3.75142196e-06
3.94509859e-06
3.71005411e-06
3.67106963e-06
4.80337236e-07
0.000113994759
0.000205787591
0.000303651456
0.000403808403
0.000509647414
0.000622634594
0.000747134354
0.000882451815
0.00103556393
0.00120268309
0.00139560622
0.00160556075
0.00185193951
0.00211811507
0.00243482827
0.00277345085
0.00318118139
0.00361146335
0.00413484169
0.0046784339
0.00534528101
0.00602446755
0.00686347556
0.00769750419
0.00873380867
0.00973318685
0.0109819575
0.0121414325
0.013600328
0.014891455
0.016531991
0.0178942922
0.0196492851
0.0209763797
0.0227193824
0.0238368449
0.0253495288
0.0259823072
0.0269069352
0.0266330159
0.0264054524
0.0245885739
0.0223526878
0.0179762135
0.0123848918
0.00382388877
0.00114765522
7.73422161e-05
2.13813944e-05
0.000168916473
1.64359284e-07
9.40022634e-05
5.92828049e-05
4.70358466e-05
6.28572565e-06
8.73139595e-10
1.41543767e-09
7.8626688e-06
1.28155782e-07
1.74478722e-06
2.2577006e-06
4.93722268e-06
4.26349349e-06
3.49242156e-06
4.33342352e-06
3.20609562e-06
5.76218398e-06
2.64522623e-06
4.88013772e-06
1.85371782e-06
3.75291959e-06
3.95936424e-06
3.21108808e-06
3.75161135e-06
3.70860022e-06
3.71002271e-06
3.80484198e-06
3.62305149e-06
3.70960876e-06
4.51489567e-07
0.000101864856
0.000194764138
0.000292998292
0.000392573436
0.000497517087
0.000608886041
0.000732118279
0.000865009692
0.00101685247
0.00118056907
0.00137253414
0.00157778336
0.00182392341
0.00208363957
0.00240143294
0.00273127147
0.00314229802
0.00356078912
0.0040910128
0.004619059
0.00529825127
0.00595742963
0.00681704208
0.00762610855
0.00869494892
0.00966433857
0.0109620058
0.0120870046
0.0136158219
0.0148694131
0.0166050412
0.0179296693
0.0198081994
0.0211029624
0.0229993984
0.0240986668
0.0257940058
0.0264348402
0.0275693249
0.0273452368
0.0273551101
0.0256506551
0.0236903475
0.019529705
0.0143627904
0.00579524767
0.000665191029
0.000376739967
0.000291258704
0.000201359749
0.000112402948
2.46706752e-05
4.27837209e-05
8.39686497e-05
0.000150288753
5.95563033e-05
4.16993198e-05
4.26548303e-06
8.43011253e-06
6.59514482e-06
3.42082843e-06
3.04450959e-06
4.40840875e-06
3.61240784e-06
2.88923925e-06
3.7116591e-06
3.06358443e-06
4.61371009e-06
3.42856622e-06
5.04448389e-06
2.48305477e-06
3.82016679e-06
4.08563264e-06
3.59032104e-06
3.66000249e-06
3.6208213e-06
3.72091521e-06
3.71023068e-06
3.69320118e-06
4.56419541e-07
8.9858531e-05
0.000183463247
0.000281493317
0.000380293611
0.000483612843
0.000593637815
0.000714295529
0.00084588691
0.000994086444
0.00115702206
0.00134391707
0.00154949259
0.00178862444
0.00205062477
0.00235880451
0.00269412644
0.00309207534
0.00352102608
0.00403359404
0.00457953769
0.00523502121
0.00592280175
0.00675066653
0.00760317181
0.00862958841
0.00966226061
0.0109035734
0.012117642
0.0135727721
0.014948315
0.0165904321
0.0180783977
0.0198433347
0.0213526319
0.0231195137
0.024494825
0.026055043
0.0270418474
0.0280545424
0.0282491045
0.028180771
0.0269598296
0.0250009533
0.0213904454
0.0164189548
0.00824673738
0.00244572488
0.000319813014
7.1869982e-06
2.01371785e-05
1.22690847e-06
1.3373927e-07
4.26536436e-12
9.66348873e-11
1.35573932e-12
8.90940653e-10
6.39961414e-07
2.02547301e-07
8.86900249e-06
8.25944023e-06
2.55516585e-06
2.75254115e-06
4.75084384e-06
2.54088696e-06
5.20482485e-06
3.05389005e-06
6.61480537e-06
2.58753589e-06
4.68487724e-06
2.65474906e-06
4.32361846e-06
4.18204294e-06
4.05735558e-06
3.31148583e-06
3.4886405e-06
3.56668285e-06
3.61067256e-06
3.63542173e-06
3.69906781e-06
4.48032179e-07
7.89044814e-05
0.000172881703
0.000270400496
0.000368055894
0.000469671591
0.000577685284
0.000695877515
0.000824910221
0.000969964632
0.00112986832
0.00131287896
0.00151501442
0.0017494642
0.00200777125
0.00231049292
0.00264221836
0.00303413372
0.00346026074
0.00396671949
0.00451175933
0.00516196591
0.0058524686
0.00667719429
0.00753819646
0.00856502609
0.00961411053
0.0108603385
0.0121002473
0.0135648214
0.0149762847
0.016631755
0.0181660747
0.0199481386
0.0215152515
0.02330498
0.024752169
0.0263470505
0.0274259118
0.0284973345
0.028814201
0.0288467708
0.0277919382
0.025995735
0.0226330059
0.0178975841
0.0102186233
0.00283256885
0.000652342751
0.000361157724
0.00015058729
0.000108732431
0.00015594312
9.45539839e-05
0.00017318574
0.000130503982
9.67187337e-05
6.01902419e-06
5.48506581e-06
5.46579803e-06
4.4581706e-06
3.14420058e-06
4.0493345e-06
3.89168885e-06
3.57177421e-06
2.78893408e-06
4.05163062e-06
2.82772036e-06
3.96625385e-06
4.20965558e-06
5.39997381e-06
2.90443195e-06
3.9049347e-06
4.55634871e-06
3.53346561e-06
3.41345948e-06
3.46020642e-06
3.51107439e-06
3.69851114e-06
3.65254108e-06
4.16599312e-07
6.94335989e-05
0.000163788293
0.000260849588
0.000357689288
0.000457844011
0.000564545353
0.00068048722
0.000808128799
0.000950000519
0.00110872669
0.0012872645
0.00148877388
0.00171692446
0.00197564251
0.00226950887
0.00260341508
0.00298296224
0.0034141665
0.00390354783
0.00445831166
0.00508533631
0.00579291492
0.00658687193
0.00747635264
0.00846337749
0.00955806553
0.0107540867
0.0120638424
0.0134660444
0.0149795538
0.0165579923
0.0182347097
0.0199219857
0.021679795
0.0233538972
0.0250471134
0.0265040166
0.0278883376
0.0288029352
0.0294828811
0.029354799
0.0287064897
0.0267829326
0.0238521874
0.0191047507
0.0120821168
0.00266246032
0.000226259897
1.98948295e-05
0.000154305172
0.000100731795
1.48894441e-09
4.52087565e-05
1.16725662e-07
1.50778084e-05
1.13897827e-06
2.01401734e-06
3.29216397e-05
9.51194456e-06
3.44396699e-06
2.91111728e-06
3.88564921e-06
3.75315967e-06
2.59992777e-06
5.63887065e-06
3.25508365e-06
5.83276128e-06
3.34646701e-06
3.73617162e-06
3.9822858e-06
5.17171236e-06
3.70399483e-06
4.30140378e-06
3.58834063e-06
3.38260538e-06
3.5074652e-06
3.44666931e-06
3.6046631e-06
3.65629312e-06
3.64120037e-07
5.74586502e-05
0.000150450562
0.000246058137
0.00034124437
0.000439107352
0.000543620462
0.000656499112
0.000781958098
0.000920021975
0.00107702283
0.00125084249
0.00145165934
0.00167393345
0.00193383072
0.00222034406
0.00255852669
0.00292882489
0.00336913644
0.00384677907
0.00441783233
0.00502973457
0.00576382023
0.00653790694
0.00746783091
0.00842827016
0.00958162839
0.0107418212
0.0121334265
0.0134881882
0.0151124769
0.0166308548
0.0184537735
0.0200701163
0.0220162455
0.0236143947
0.0255438513
0.0269307773
0.028602818
0.0294699646
0.0304900855
0.0303587523
0.0301035825
0.0282473437
0.0257759371
0.0211696376
0.0148543356
0.00471876894
0.00140859886
0.000349136085
0.000220328378
0.000154523924
0.000165159695
1.2142107e-07
0.00018601252
1.77105276e-05
4.69150464e-05
1.73513047e-06
1.4842991e-06
1.79856202e-06
8.41951497e-06
6.7069214e-06
3.99496348e-06
3.85352255e-06
4.45755046e-06
2.33343079e-06
4.07787735e-06
2.79692457e-06
4.05061716e-06
3.79829752e-06
4.5933201e-06
2.8862692e-06
3.83584168e-06
3.66986167e-06
3.69732384e-06
3.4107553e-06
3.50510577e-06
3.45842231e-06
3.60314825e-06
3.61335846e-06
3.21077233e-07
4.7150421e-05
0.000138206352
0.000232127833
0.000325540676
0.000421115475
0.000523152805
0.000633001419
0.000755607705
0.000889970307
0.00104396938
0.00121335442
0.00141128811
0.00162830601
0.00188587467
0.00216625258
0.00250338229
0.00286668609
0.00330836302
0.00377829688
0.00435485026
0.00495862311
0.00570475222
0.00647068407
0.00742227178
0.00837484351
0.00956297052
0.0107154944
0.0121584935
0.0135052989
0.015200812
0.016710499
0.0186274653
0.0202350422
0.0223010197
0.0238932715
0.0259713017
0.0273614926
0.0292133463
0.0301034252