/*--------------------------------*- C++ -*----------------------------------*\
| =========                 |                                                 |
| \\      /  F ield         | OpenFOAM: The Open Source CFD Toolbox           |
|  \\    /   O peration     | Version:  v2006                                 |
|   \\  /    A nd           | Website:  www.openfoam.com                      |
|    \\/     M anipulation  |                                                 |
\*---------------------------------------------------------------------------*/
FoamFile
{
    version     2.0;
    format      ascii;
    class       volScalarField;
    location    "0.0391000018";
    object      cellVolu;
}
// * * * * * * * * * * * * * * * * * * * * * * * * * * * * * * * * * * * * * //

dimensions      [0 3 0 0 0 0 0];


internalField   nonuniform List<scalar> 
14400
(
4.22619106e-08
4.29649537e-08
4.43793304e-08
4.65285488e-08
4.94484574e-08
5.31876635e-08
5.78084534e-08
6.33877187e-08
7.00183208e-08
7.78107968e-08
8.68949154e-08
9.74223432e-08
1.09568737e-07
1.23537329e-07
1.39561581e-07
1.57910224e-07
1.78891019e-07
2.02857044e-07
2.30211779e-07
2.6141746e-07
2.97002224e-07
3.37570872e-07
3.83814373e-07
4.36524199e-07
4.96605952e-07
5.65097124e-07
6.43187242e-07
7.32240571e-07
8.33824318e-07
9.49740284e-07
1.08206257e-06
1.23318271e-06
1.40586202e-06
1.60329537e-06
1.8291854e-06
2.08783351e-06
2.38424832e-06
2.72427642e-06
3.11476217e-06
3.56374141e-06
4.08067925e-06
4.67676185e-06
5.36525587e-06
6.16195502e-06
7.08573259e-06
8.15923315e-06
9.40973474e-06
1.08702339e-05
1.25808085e-05
1.45903383e-05
1.69586824e-05
1.97594366e-05
2.30834395e-05
2.70432326e-05
3.17787474e-05
3.74645669e-05
4.43192107e-05
5.26170227e-05
6.27034058e-05
7.50143695e-05
9.01016299e-05
0.000108664867
0.000131593208
0.000160018606
0.000195384569
0.00023953469
0.000294826723
0.000364279651
0.000451763309
0.000562242993
0.000702094964
0.000879513641
0.00110503697
0.00139222452
0.00175853271
0.00222644436
0.00282492676
0.00359131339
0.00457373239
0.00583424028
3.95861506e-08
4.02459902e-08
4.15734626e-08
4.35907766e-08
4.63315682e-08
4.9841707e-08
5.41796331e-08
5.94177074e-08
6.56435056e-08
7.29608089e-08
8.14919271e-08
9.13795666e-08
1.02789099e-07
1.15911865e-07
1.30967722e-07
1.4820976e-07
1.67927933e-07
1.90454602e-07
2.1617024e-07
2.45510219e-07
2.78972422e-07
3.17126592e-07
3.60624448e-07
4.10212074e-07
4.66743343e-07
5.3119679e-07
6.04694108e-07
6.88522579e-07
7.84160375e-07
8.93307602e-07
1.01792143e-06
1.16025859e-06
1.32292534e-06
1.50893697e-06
1.72178849e-06
1.96554058e-06
2.24492131e-06
2.56545068e-06
2.9335906e-06
3.3569285e-06
3.84440157e-06
4.40657259e-06
5.05596956e-06
5.80750698e-06
6.67900916e-06
7.69186259e-06
8.87183197e-06
1.02500855e-05
1.18644837e-05
1.37612075e-05
1.59968175e-05
1.86408647e-05
2.17792095e-05
2.55182456e-05
2.99902889e-05
3.53604593e-05
4.18354851e-05
4.9674978e-05
5.92058914e-05
7.08410779e-05
8.51031292e-05
0.000102655027
0.000124339579
0.000151230194
0.000184696278
0.000226487519
0.000278842557
0.000344629136
0.000427524917
0.000532250835
0.000664872275
0.000833187937
0.00104723187
0.0013199218
0.00166789639
0.00211259643
0.00268166121
0.0034107317
0.00434577905
0.005546111
3.70984502e-08
3.77180258e-08
3.8964467e-08
4.08588746e-08
4.34326859e-08
4.67291851e-08
5.08033459e-08
5.57233209e-08
6.15714905e-08
6.84456103e-08
7.64608353e-08
8.5751463e-08
9.64734118e-08
1.08806727e-07
1.22958567e-07
1.3916734e-07
1.57706392e-07
1.78888717e-07
2.03073029e-07
2.30669651e-07
2.62148057e-07
2.98045257e-07
3.38975906e-07
3.85643669e-07
4.38853795e-07
4.99529551e-07
5.68729037e-07
6.47666935e-07
7.3773817e-07
8.40547093e-07
9.57941166e-07
1.09205044e-06
1.24533545e-06
1.42064263e-06
1.62127213e-06
1.85105808e-06
2.114465e-06
2.41670573e-06
2.76388277e-06
3.1631618e-06
3.62298379e-06
4.15332501e-06
4.76601911e-06
5.47515366e-06
6.2975662e-06
7.2534598e-06
8.36717555e-06
9.66816125e-06
1.11921908e-05
1.29829049e-05
1.50937586e-05
1.75904939e-05
2.05542815e-05
2.40857225e-05
2.83099531e-05
3.33831689e-05
3.95009719e-05
4.69090671e-05
5.59169817e-05
6.69156816e-05
8.0400215e-05
9.69988343e-05
0.000117510484
0.000142953084
0.000174625754
0.000214189047
0.000263768427
0.000326087819
0.000404641969
0.000503918996
0.000629687793
0.000789369274
0.000992515914
0.00125143136
0.00158197098
0.00200457628
0.00254561152
0.00323909067
0.00412890869
0.00527172401
3.47846777e-08
3.5366647e-08
3.65376254e-08
3.83173218e-08
4.0735424e-08
4.38326912e-08
4.76607765e-08
5.22840371e-08
5.77798484e-08
6.42404563e-08
7.17742196e-08
8.05076581e-08
9.05876621e-08
1.02183896e-07
1.15491545e-07
1.30735328e-07
1.48172756e-07
1.68099121e-07
1.90852306e-07
2.16819447e-07
2.46443119e-07
2.80229875e-07
3.18759597e-07
3.62695746e-07
4.12798526e-07
4.699388e-07
5.35115309e-07
6.09474333e-07
6.94332694e-07
7.91204936e-07
9.0183511e-07
1.02823467e-06
1.17272663e-06
1.33799938e-06
1.52716944e-06
1.74385792e-06
1.992282e-06
2.27736527e-06
2.60487245e-06
2.98157263e-06
3.41544001e-06
3.91589956e-06
4.49413126e-06
5.16344537e-06
5.93975085e-06
6.84213768e-06
7.89360718e-06
9.12198835e-06
1.05610914e-05
1.22521653e-05
1.42457414e-05
1.66039744e-05
1.94036168e-05
2.27398104e-05
2.67309236e-05
3.15247351e-05
3.73063492e-05
4.43083427e-05
5.28237835e-05
6.32229555e-05
7.59748612e-05
9.16748922e-05
0.00011108046
0.00013515691
0.000165136717
0.000202595839
0.000249552262
0.0003085932
0.000383039372
0.000477157214
0.000596433015
0.000747927255
0.000940732504
0.00118656532
0.0015005315
0.00190211515
0.00241645759
0.0030760105
0.00392267281
0.00501055284
3.26303819e-08
3.31773153e-08
3.42778137e-08
3.59504154e-08
3.82232083e-08
4.11344108e-08
4.47327935e-08
4.9078885e-08
5.42457008e-08
6.03200168e-08
6.74040038e-08
7.56169007e-08
8.50970579e-08
9.60043777e-08
1.08522918e-07
1.22864507e-07
1.39271894e-07
1.5802347e-07
1.79438019e-07
2.03880556e-07
2.31768606e-07
2.63579955e-07
2.99861915e-07
3.4124038e-07
3.88432898e-07
4.42261245e-07
5.03668448e-07
5.7373643e-07
6.53708559e-07
7.45014986e-07
8.493025e-07
9.6847097e-07
1.10471423e-06
1.26057175e-06
1.43898748e-06
1.64338207e-06
1.87773975e-06
2.14671223e-06
2.45574604e-06
2.81123722e-06
3.22072049e-06
3.69310189e-06
4.23894613e-06
4.8708316e-06
5.60379294e-06
6.45587217e-06
7.44880891e-06
8.60890752e-06
9.96812837e-06
1.1565467e-05
1.34487002e-05
1.56766008e-05
1.83217561e-05
2.14741595e-05
2.52457936e-05
2.97764932e-05
3.52414509e-05
4.18608417e-05
4.99121778e-05
5.97461846e-05
7.18072207e-05
8.66595658e-05
0.000105021285
0.000127807881
0.0001561886
0.000191659092
0.000236135216
0.00029207419
0.000362631119
0.000451861262
0.000564981497
0.000708708366
0.000891695145
0.00112509713
0.00142330269
0.00180487877
0.00229379388
0.0029209997
0.00372647678
0.00476187967
3.06239244e-08
3.1138118e-08
3.21728247e-08
3.37454296e-08
3.58825334e-08
3.86199158e-08
4.20038286e-08
4.60909924e-08
5.09504604e-08
5.66638829e-08
6.3327568e-08
7.10539666e-08
7.99734566e-08
9.02367848e-08
1.02017488e-07
1.15515367e-07
1.30959325e-07
1.48611917e-07
1.68773937e-07
1.91789707e-07
2.18053099e-07
2.48015173e-07
2.82192273e-07
3.2117532e-07
3.6564153e-07
4.16366864e-07
4.74241657e-07
5.40287512e-07
6.1567882e-07
7.01766042e-07
8.00104981e-07
9.12490042e-07
1.04099392e-06
1.18801585e-06
1.35633725e-06
1.54919055e-06
1.77034034e-06
2.02418263e-06
2.31586452e-06
2.6514308e-06
3.03800254e-06
3.48399728e-06
3.99940041e-06
4.59610141e-06
5.28831162e-06
6.09308616e-06
7.03097656e-06
8.12685102e-06
9.41092756e-06
1.09200787e-05
1.26994849e-05
1.48047318e-05
1.730448e-05
2.02838664e-05
2.38488505e-05
2.81317692e-05
3.32984576e-05
3.95573763e-05
4.71713368e-05
5.64725722e-05
6.78821287e-05
8.19348369e-05
9.93114942e-05
0.000120880366
0.000147750735
0.000181342031
0.000223473122
0.000276477668
0.000343353234
0.000427954054
0.000535240307
0.000671600547
0.000845268785
0.00106686411
0.00135008889
0.00171263222
0.00217733893
0.00277372223
0.00353992084
0.00452523108
2.87538031e-08
2.92374426e-08
3.02106198e-08
3.168983e-08
3.37000473e-08
3.62750771e-08
3.94584685e-08
4.33036796e-08
4.78757744e-08
5.32518172e-08
5.95225377e-08
6.67939333e-08
7.51890096e-08
8.48498789e-08
9.59403208e-08
1.08648668e-07
1.23190882e-07
1.39814773e-07
1.58804053e-07
1.80483745e-07
2.05225448e-07
2.33455212e-07
2.65660062e-07
3.02398197e-07
3.44308993e-07
3.92125185e-07
4.46687567e-07
5.08961196e-07
5.80055273e-07
6.61245627e-07
7.54002162e-07
8.60020128e-07
9.81258392e-07
1.11998389e-06
1.27882524e-06
1.46083749e-06
1.6695787e-06
1.90920386e-06
2.1845783e-06
2.50141582e-06
2.86644804e-06
3.28763245e-06
3.77440871e-06
4.33801735e-06
4.99189418e-06
5.75216457e-06
6.63826052e-06
7.67369703e-06
8.88704997e-06
1.03131909e-05
1.19948526e-05
1.39846149e-05
1.63474347e-05
1.91638675e-05
2.25341876e-05
2.65836538e-05
3.14692622e-05
3.73884056e-05
4.45899992e-05
5.33887867e-05
6.41837542e-05
7.74818507e-05
9.39285696e-05
0.000114347399
0.000139790745
0.000171605694
0.000211518989
0.000261746854
0.000325137
0.000405352297
0.000507108374
0.000636481068
0.000801304292
0.00101168502
0.00128066986
0.00162510801
0.00206676818
0.00263378466
0.00336252897
0.00430003244
2.70098278e-08
2.74649042e-08
2.83805573e-08
2.97724615e-08
3.16640614e-08
3.40872967e-08
3.70831468e-08
4.07021084e-08
4.50054604e-08
5.00658924e-08
5.59690129e-08
6.28147102e-08
7.07190781e-08
7.98161301e-08
9.02604365e-08
1.02229606e-07
1.15927526e-07
1.31587995e-07
1.49478865e-07
1.69906777e-07
1.93222778e-07
2.19828879e-07
2.50185098e-07
2.84818567e-07
3.24333106e-07
3.69420804e-07
4.20875954e-07
4.79610238e-07
5.46671652e-07
6.2326579e-07
7.10781614e-07
8.10821169e-07
9.25235977e-07
1.05616852e-06
1.20610369e-06
1.37792917e-06
1.57500868e-06
1.80127027e-06
2.06131368e-06
2.36054106e-06
2.70531716e-06
3.10316591e-06
3.56301307e-06
4.0954874e-06
4.71329422e-06
5.43168258e-06
6.26902948e-06
7.24757456e-06
8.39434541e-06
9.74232722e-06
1.13319444e-05
1.32129426e-05
1.54467837e-05
1.81097006e-05
2.12966005e-05
2.51260593e-05
2.97467239e-05
3.53455277e-05
4.21582486e-05
5.04830889e-05
6.06981587e-05
7.32840094e-05
8.88526908e-05
0.000108185248
0.000132280144
0.000162415808
0.000200231497
0.000247831828
0.000307922013
0.000383982806
0.000480496932
0.000603242169
0.000759670807
0.000959400929
0.00121485265
0.00154207196
0.00196179772
0.00250084333
0.00319388598
0.00408578333
2.53824616e-08
2.58107646e-08
2.66726925e-08
2.79828997e-08
2.97635453e-08
3.20447628e-08
3.48651324e-08
3.82724183e-08
4.23243104e-08
4.70893038e-08
5.26483263e-08
5.90955709e-08
6.65404534e-08
7.51095872e-08
8.49487166e-08
9.62254874e-08
1.0913245e-07
1.2389018e-07
1.4075162e-07
1.60006221e-07
1.81985587e-07
2.07069181e-07
2.35691733e-07
2.68350935e-07
3.05617314e-07
3.48144734e-07
3.96683549e-07
4.52095427e-07
5.15370623e-07
5.87648564e-07
6.70242081e-07
7.64665559e-07
8.72669116e-07
9.96278319e-07
1.13784241e-06
1.30009168e-06
1.48620644e-06
1.6999011e-06
1.94552512e-06
2.22818698e-06
2.55390563e-06
2.92979633e-06
3.36430064e-06
3.86747057e-06
4.45132293e-06
5.13028061e-06
5.92172598e-06
6.84669621e-06
7.93075887e-06
9.20512006e-06
1.07080268e-05
1.24865502e-05
1.45988545e-05
1.7117092e-05
2.01311027e-05
2.37531498e-05
2.81239915e-05
3.34206758e-05
3.98665576e-05
4.77441904e-05
5.74119273e-05
6.9325323e-05
8.40647413e-05
0.000102370994
0.000125191379
0.000153739168
0.000189570536
0.000234684045
0.000291649402
0.000363774073
0.000455319003
0.000571777957
0.000720239288
0.000909854524
0.0011524454
0.00146329021
0.0018621426
0.00237455133
0.00303356998
0.00388197155
2.38625318e-08
2.4265832e-08
2.50774121e-08
2.63111768e-08
2.79879039e-08
3.01361663e-08
3.27922208e-08
3.60012877e-08
3.98176119e-08
4.43059391e-08
4.95426053e-08
5.56164905e-08
6.26308552e-08
7.07051742e-08
7.99771124e-08
9.06048218e-08
1.02770123e-07
1.16681315e-07
1.32577172e-07
1.50731139e-07
1.71456391e-07
1.95111303e-07
2.22106621e-07
2.529125e-07
2.88067996e-07
3.28191067e-07
3.73990741e-07
4.2628142e-07
4.85999069e-07
5.54220802e-07
6.32187636e-07
7.21331414e-07
8.23306669e-07
9.40028733e-07
1.07371904e-06
1.2269594e-06
1.40275744e-06
1.60462589e-06
1.83667832e-06
2.10374628e-06
2.41152257e-06
2.76673717e-06
3.17737484e-06
3.65294374e-06
4.2048111e-06
4.84662063e-06
5.59481632e-06
6.46930071e-06
7.49426393e-06
8.69923288e-06
1.01203994e-05
1.18023101e-05
1.3800015e-05
1.61818124e-05
1.90327548e-05
2.24591397e-05
2.65942684e-05
3.16058394e-05
3.77054552e-05
4.51608581e-05
5.43116934e-05
6.55898353e-05
7.95456151e-05
9.68816924e-05
0.000118496816
0.000145542398
0.00017949569
0.000222254454
0.000276259509
0.000344653396
0.000431485845
0.000541979948
0.000682876969
0.000862883168
0.00109324877
0.0013885183
0.00176750298
0.00225454095
0.00288113033
0.00368804519
2.24429804e-08
2.28228809e-08
2.35873188e-08
2.47494681e-08
2.63289862e-08
2.83527312e-08
3.08549904e-08
3.38783595e-08
3.7474097e-08
4.17033272e-08
4.66380336e-08
5.23621217e-08
5.89731227e-08
6.65837732e-08
7.53241088e-08
8.5343423e-08
9.68134034e-08
1.0993084e-07
1.24921173e-07
1.42042768e-07
1.61591519e-07
1.8390595e-07
2.09374177e-07
2.38440514e-07
2.71614409e-07
3.09479942e-07
3.52707323e-07
4.02066313e-07
4.58441972e-07
5.22852556e-07
5.96471457e-07
6.80652798e-07
7.76961012e-07
8.8720762e-07
1.0134936e-06
1.15826073e-06
1.32435406e-06
1.51509609e-06
1.73437808e-06
1.98677051e-06
2.27765873e-06
2.61340956e-06
3.0015769e-06
3.4511563e-06
3.97290241e-06
4.57972421e-06
5.28718075e-06
6.11410435e-06
7.08338598e-06
8.22296828e-06
9.5671043e-06
1.11579576e-05
1.30476392e-05
1.53008087e-05
1.79979977e-05
2.12398687e-05
2.51526758e-05
2.98952802e-05
3.56681718e-05
4.27250818e-05
5.13879508e-05
6.20662323e-05
7.52818099e-05
9.17011839e-05
0.000112177071
0.000137802196
0.000169978894
0.000210509183
0.000261711395
0.000326571241
0.000408937469
0.000513775444
0.000647495751
0.000818380103
0.00103713346
0.0013175998
0.00167768994
0.00214058449
0.00273629317
0.00350367607
2.11156947e-08
2.14735852e-08
2.21939236e-08
2.32889118e-08
2.47773517e-08
2.66843563e-08
2.90424613e-08
3.189177e-08
3.52807171e-08
3.92669864e-08
4.39185289e-08
4.93145708e-08
5.5547247e-08
6.27229509e-08
7.09644879e-08
8.04128978e-08
9.12303165e-08
1.03602691e-07
1.17742943e-07
1.33895221e-07
1.52339013e-07
1.73394408e-07
1.97428074e-07
2.24859956e-07
2.56171672e-07
2.91915323e-07
3.32724574e-07
3.79327178e-07
4.32560061e-07
4.93386069e-07
5.62914898e-07
6.42427221e-07
7.33402761e-07
8.37554873e-07
9.56870997e-07
1.09366093e-06
1.25061614e-06
1.43087983e-06
1.6381335e-06
1.87670118e-06
2.15167827e-06
2.46908874e-06
2.83607993e-06
3.26116375e-06
3.75451657e-06
4.32835382e-06
4.99739941e-06
5.77947525e-06
6.69624576e-06
7.77415767e-06
9.04563293e-06
1.05505845e-05
1.23383471e-05
1.44701412e-05
1.7022226e-05
2.00899359e-05
2.37928611e-05
2.8281503e-05
3.37458339e-05
4.04263208e-05
4.86281362e-05
5.87394895e-05
7.12552987e-05
8.6807772e-05
0.000106205946
0.000130486832
0.000160981607
0.000199401295
0.000247947761
0.000309457487
0.000387587895
0.000487058833
0.000613965667
0.000776185187
0.000983901944
0.00125029079
0.00159240203
0.00203230923
0.00259859764
0.00332829418
1.9874423e-08
2.02117066e-08
2.08906747e-08
2.19227818e-08
2.3325781e-08
2.51233962e-08
2.73463424e-08
3.00324801e-08
3.32275224e-08
3.69859768e-08
4.13719694e-08
4.64603237e-08
5.23381294e-08
5.91057756e-08
6.6879257e-08
7.57919395e-08
8.59969012e-08
9.76698628e-08
1.11012008e-07
1.26254111e-07
1.43660179e-07
1.63532944e-07
1.86218904e-07
2.12115105e-07
2.41676789e-07
2.75426033e-07
3.13962093e-07
3.57973088e-07
4.08250571e-07
4.65705134e-07
5.31386542e-07
6.06506062e-07
6.92463597e-07
7.90880012e-07
9.03635524e-07
1.03291563e-06
1.18126668e-06
1.35166298e-06
1.54758794e-06
1.77313327e-06
2.03312073e-06
2.33325073e-06
2.68028721e-06
3.08228542e-06
3.54887618e-06
4.09162047e-06
4.72445387e-06
5.46424477e-06
6.33149951e-06
7.35125268e-06
8.55419743e-06
9.97812124e-06
1.16697359e-05
1.36870139e-05
1.61021764e-05
1.90055221e-05
2.25103406e-05
2.67592262e-05
3.19322008e-05
3.82571785e-05
4.60234557e-05
5.55991202e-05
6.74535362e-05
8.21864029e-05
0.000100565331
0.000123574465
0.00015247742
0.000188898794
0.00023492976
0.000293264902
0.000367379594
0.000461759965
0.000582201127
0.000736193907
0.000933426538
0.00118643536
0.00151144894
0.00192948302
0.00246776085
0.00316155535
1.87127551e-08
1.90307715e-08
1.9670901e-08
2.06440629e-08
2.19668848e-08
2.36619465e-08
2.57580754e-08
2.82911482e-08
3.13042578e-08
3.48489433e-08
3.89857524e-08
4.3785367e-08
4.93300403e-08
5.571461e-08
6.30486874e-08
7.14583132e-08
8.10881124e-08
9.21040902e-08
1.04696491e-07
1.19083396e-07
1.3551439e-07
1.54275667e-07
1.75694706e-07
2.00147154e-07
2.28063295e-07
2.59936957e-07
2.9633479e-07
3.37907772e-07
3.85404502e-07
4.39686411e-07
5.01746647e-07
5.72731051e-07
6.53964189e-07
7.46979674e-07
8.53556618e-07
9.75763094e-07
1.11600872e-06
1.27710813e-06
1.46235798e-06
1.67563069e-06
1.92148958e-06
2.20532981e-06
2.53355331e-06
2.91378426e-06
3.35513843e-06
3.86855893e-06
4.46723689e-06
5.16714043e-06
5.98768221e-06
6.9525632e-06
8.09084317e-06
9.43830172e-06
1.10391726e-05
1.2948358e-05
1.52342623e-05
1.79824225e-05
2.1300169e-05
2.53226153e-05
3.02203672e-05
3.62094537e-05
4.35641352e-05
5.26334366e-05
6.38625026e-05
7.78202061e-05
9.52348598e-05
0.000117040432
0.000144436391
0.000178965228
0.000222612901
0.000277939061
0.000348245868
0.000437796951
0.000552101415
0.000698282254
0.000885554396
0.00112584492
0.00143459782
0.0018318183
0.0023434276
0.00300302089
1.762488e-08
1.7924795e-08
1.85285153e-08
1.94463223e-08
2.06939304e-08
2.22926866e-08
2.42698183e-08
2.66591948e-08
2.95015168e-08
3.28455311e-08
3.67483098e-08
4.12767958e-08
4.6508561e-08
5.25333238e-08
5.94546451e-08
6.73915778e-08
7.64809009e-08
8.68794381e-08
9.87671048e-08
1.12350043e-07
1.27864234e-07
1.45580261e-07
1.6580779e-07
1.8890205e-07
2.15270084e-07
2.45378876e-07
2.79764429e-07
3.190426e-07
3.63921511e-07
4.15216259e-07
4.73866447e-07
5.40956304e-07
6.17739201e-07
7.05666427e-07
8.06421674e-07
9.21962047e-07
1.05456822e-06
1.20690405e-06
1.38208984e-06
1.58379081e-06
1.81632642e-06
2.08480356e-06
2.39528209e-06
2.75497927e-06
3.17252444e-06
3.65827695e-06
4.2247248e-06
4.88698564e-06
5.6634389e-06
6.57652538e-06
7.65376156e-06
8.92902931e-06
1.04442196e-05
1.22513322e-05
1.4415162e-05
1.70167419e-05
2.01577642e-05
2.39662629e-05
2.86039292e-05
3.42755379e-05
4.12411054e-05
4.98315906e-05
6.04691779e-05
7.36935044e-05
9.01955954e-05
0.000110861791
0.000136830641
0.000169566625
0.000210955695
0.000263429171
0.000330124396
0.00041509318
0.000523572202
0.000662333919
0.000840141934
0.00106834204
0.00136162929
0.00173904363
0.00222526195
0.00285227506
1.66060716e-08
1.68890014e-08
1.7458524e-08
1.8324426e-08
1.95014377e-08
2.10097859e-08
2.28752628e-08
2.51297059e-08
2.78117533e-08
3.09673151e-08
3.4650413e-08
3.89242685e-08
4.38621726e-08
4.95490036e-08
5.60825758e-08
6.35754167e-08
7.21568585e-08
8.19752185e-08
9.32005088e-08
1.06027684e-07
1.20679959e-07
1.37413123e-07
1.56520167e-07
1.78336973e-07
2.032487e-07
2.31696988e-07
2.64189065e-07
3.01307516e-07
3.43722387e-07
3.92205029e-07
4.47644497e-07
5.11066947e-07
5.83658586e-07
6.6679296e-07
7.62063704e-07
8.71323305e-07
9.96730571e-07
1.14080718e-06
1.30650682e-06
1.49729931e-06
1.71727371e-06
1.97126483e-06
2.26500964e-06
2.60534107e-06
3.00042919e-06
3.46008223e-06
3.99612416e-06
4.62286941e-06
5.35772158e-06
6.22193114e-06
7.24155663e-06
8.44868677e-06
9.88299915e-06
1.15937499e-05
1.36423218e-05
1.61054891e-05
1.90796118e-05
2.26860268e-05
2.70779889e-05
3.24496193e-05
3.90474483e-05
4.71853217e-05
5.72636666e-05
6.97944063e-05
8.54332066e-05
0.000105021224
0.000129639189
0.000160677506
0.000199927124
0.000249697396
0.000312968957
0.000393592108
0.000496544238
0.000628263984
0.000797084963
0.00101379886
0.0012923864
0.00165096642
0.00211302775
0.00270902841
1.56509456e-08
1.59179404e-08
1.64553352e-08
1.72724449e-08
1.83831904e-08
1.98066074e-08
2.15671427e-08
2.36948361e-08
2.62262664e-08
2.92047124e-08
3.26813647e-08
3.67158711e-08
4.13775633e-08
4.67466519e-08
5.29156071e-08
5.99908887e-08
6.80946542e-08
7.73672322e-08
8.79694322e-08
1.00085495e-07
1.13926658e-07
1.29734814e-07
1.47787125e-07
1.68401338e-07
1.91941806e-07
2.18826445e-07
2.49535124e-07
2.84619213e-07
3.24712677e-07
3.70545603e-07
4.22959386e-07
4.82925252e-07
5.51566019e-07
6.30181849e-07
7.2028123e-07
8.23617931e-07
9.42235596e-07
1.07852153e-06
1.23527211e-06
1.41577249e-06
1.6238941e-06
1.86421455e-06
2.14216591e-06
2.4642178e-06
2.83810628e-06
3.27311885e-06
3.78045185e-06
4.37366059e-06
5.06922629e-06
5.88727413e-06
6.8524843e-06
7.99525015e-06
9.35315576e-06
1.09728624e-05
1.29125249e-05
1.5244888e-05
1.80612644e-05
2.14766506e-05
2.56363132e-05
3.0724282e-05
3.69743074e-05
4.46840151e-05
5.42332024e-05
6.6107506e-05
8.09290381e-05
9.94960621e-05
0.000122834403
0.000152264089
0.000189485773
0.000236692833
0.000296716821
0.00037321625
0.000470921618
0.000595953545
0.000756235814
0.000962031705
0.00122664045
0.0015673016
0.00200636928
0.0025728369
1.47553682e-08
1.50073605e-08
1.55146169e-08
1.6285854e-08
1.73343498e-08
1.86779641e-08
2.03398818e-08
2.23485001e-08
2.47383535e-08
2.75503746e-08
3.08329359e-08
3.46424618e-08
3.90444701e-08
4.4114801e-08
4.99409e-08
5.66234446e-08
6.42779519e-08
7.30370831e-08
8.30530257e-08
9.45000052e-08
1.07577815e-07
1.22515332e-07
1.39574763e-07
1.59056754e-07
1.81306036e-07
2.06718138e-07
2.35747082e-07
2.68914762e-07
3.06821172e-07
3.50157388e-07
3.99719766e-07
4.56427744e-07
5.21344232e-07
5.95700109e-07
6.80923474e-07
7.78674795e-07
8.90888982e-07
1.01982638e-06
1.16813486e-06
1.33892497e-06
1.53586265e-06
1.76328253e-06
2.02632845e-06
2.33112696e-06
2.68500397e-06
3.09675481e-06
3.5769829e-06
4.13852602e-06
4.79699364e-06
5.57144742e-06
6.48526444e-06
7.56723522e-06
8.85296434e-06
1.03866592e-05
1.2223421e-05
1.44321823e-05
1.70994798e-05
2.03343086e-05
2.42743724e-05
2.90941439e-05
3.5015267e-05
4.2319997e-05
5.13685757e-05
6.26217131e-05
7.66696931e-05
9.42700764e-05
0.000116396564
0.000144302348
0.000179602297
0.000224379551
0.000281323908
0.000353911432
0.000446637652
0.000565320386
0.000717493016
0.000912915245
0.00116423649
0.00148785753
0.00190504955
0.00244340741
1.39151192e-08
1.41530354e-08
1.4631933e-08
1.53600833e-08
1.63500086e-08
1.76186441e-08
1.9187849e-08
2.1084506e-08
2.33412317e-08
2.59967522e-08
2.90968151e-08
3.26947176e-08
3.68524631e-08
4.16417589e-08
4.71452979e-08
5.34582632e-08
6.06899822e-08
6.89659312e-08
7.84299828e-08
8.92470853e-08
1.01606209e-07
1.15723849e-07
1.31848208e-07
1.50263755e-07
1.71296694e-07
1.95321385e-07
2.2276757e-07
2.54129172e-07
2.899742e-07
3.30956833e-07
3.77830946e-07
4.31467002e-07
4.92871389e-07
5.63209422e-07
6.43833397e-07
7.36315517e-07
8.42487975e-07
9.64491236e-07
1.10483268e-06
1.26645802e-06
1.45283885e-06
1.66808029e-06
1.91705366e-06
2.20556135e-06
2.54054154e-06
2.93032437e-06
3.38495276e-06
3.91658618e-06
4.54000994e-06
5.27328015e-06
6.13854165e-06
7.16306918e-06
8.38059497e-06
9.83300502e-06
1.15725116e-05
1.36644394e-05
1.61908047e-05
1.92549206e-05
2.29873288e-05
2.75534489e-05
3.31634545e-05
4.00850326e-05
4.86598847e-05
5.93250801e-05
7.26407066e-05
8.93256956e-05
0.000110304261
0.00013676612
0.000170244626
0.000212718146
0.000266741681
0.000335617735
0.000423618218
0.000536272659
0.000680742578
0.000866307801
0.00110499825
0.00141241471
0.00180879495
0.00232039872
1.31264898e-08
1.33511481e-08
1.38033845e-08
1.44910106e-08
1.54258853e-08
1.66240175e-08
1.81060036e-08
1.98973788e-08
2.20288736e-08
2.45372128e-08
2.7465563e-08
3.0864377e-08
3.47922956e-08
3.93171425e-08
4.45170917e-08
5.04822169e-08
5.73159384e-08
6.51369864e-08
7.40814334e-08
8.43053841e-08
9.59876099e-08
1.09333042e-07
1.24576529e-07
1.41987313e-07
1.61874107e-07
1.84591299e-07
2.10545681e-07
2.40204826e-07
2.74106449e-07
3.12869878e-07
3.5720897e-07
4.07947841e-07
4.66039425e-07
5.32587244e-07
6.08871779e-07
6.96381998e-07
7.96852936e-07
9.12311776e-07
1.04513314e-06
1.1981069e-06
1.37452106e-06
1.57826367e-06
1.8139486e-06
2.08707167e-06
2.40420465e-06
2.77323788e-06
3.20368437e-06
3.70706226e-06
4.29737766e-06
4.99173566e-06
5.81111599e-06
6.78135962e-06
7.93442768e-06
9.31001003e-06
1.09575853e-05
1.29390637e-05
1.53321825e-05
1.82348753e-05
2.1770901e-05
2.6097104e-05
3.14127891e-05
3.79718362e-05
4.6098369e-05
5.62070374e-05
6.8829283e-05
8.46473787e-05
0.000104538559
0.000129632262
0.000161384404
0.000201673779
0.000252927234
0.000318282201
0.000401797826
0.000508729227
0.000645883818
0.000822084284
0.00104877014
0.00134077939
0.00171736411
0.00220350998
1.2385917e-08
1.25980979e-08
1.30252632e-08
1.36747792e-08
1.45578641e-08
1.56896286e-08
1.70895941e-08
1.87818994e-08
2.07955551e-08
2.3165388e-08
2.59321279e-08
2.91435585e-08
3.2855128e-08
3.713101e-08
4.20451284e-08
4.76827454e-08
5.4141658e-08
6.1534259e-08
6.99892668e-08
7.965444e-08
9.06989009e-08
1.03316706e-07
1.17730048e-07
1.34193812e-07
1.53000233e-07
1.74484774e-07
1.99032577e-07
2.2708631e-07
2.59155116e-07
2.95825361e-07
3.37773047e-07
3.85778577e-07
4.40744315e-07
5.03715407e-07
5.75904485e-07
6.58721751e-07
7.53810509e-07
8.63090764e-07
9.88811692e-07
1.1336158e-06
1.30061759e-06
1.4934998e-06
1.71663293e-06
1.97522294e-06
2.27549511e-06
2.62492391e-06
3.03252126e-06
3.50919881e-06
4.06822571e-06
4.72580758e-06
5.50182197e-06
6.42075353e-06
7.51288771e-06
8.81583613e-06
1.03764903e-05
1.22535284e-05
1.45206363e-05
1.72706536e-05
2.06209146e-05
2.47201395e-05
2.97573335e-05
3.59732883e-05
4.36754615e-05
5.32572389e-05
6.52228844e-05
8.02198802e-05
9.90808616e-05
0.000122878019
0.000152993705
0.000191212085
0.000239838166
0.000301852399
0.0003811115
0.000482609414
0.000612816404
0.000780119719
0.000995396282
0.00127275697
0.00163051385
0.00209243701
1.16901668e-08
1.18906363e-08
1.22942001e-08
1.29078485e-08
1.37421826e-08
1.48115087e-08
1.61342746e-08
1.77332986e-08
1.96360663e-08
2.18754831e-08
2.44900891e-08
2.75250847e-08
3.10329321e-08
3.50743394e-08
3.97192892e-08
4.50484e-08
5.11542503e-08
5.81431788e-08
6.6137013e-08
7.5275601e-08
8.57190477e-08
9.76509799e-08
1.1128176e-07
1.26852664e-07
1.44640417e-07
1.64962539e-07
1.88183745e-07
2.14723188e-07
2.45062973e-07
2.79758374e-07
3.19449569e-07
3.64875651e-07
4.16891247e-07
4.76486215e-07
5.44809151e-07
6.23195727e-07
7.13202542e-07
8.16648281e-07
9.35663502e-07
1.07275139e-06
1.23086226e-06
1.4134849e-06
1.62475955e-06
1.8696181e-06
2.1539581e-06
2.48486077e-06
2.87086405e-06
3.32230599e-06
3.8517586e-06
4.4745767e-06
5.209595e-06
6.08001492e-06
7.11453626e-06
8.34880383e-06
9.82726029e-06
1.1605524e-05
1.37534451e-05
1.63590383e-05
1.95335526e-05
2.34180107e-05
2.81916568e-05
3.40828759e-05
4.13833228e-05
5.04662149e-05
6.18100318e-05
7.60292383e-05
9.39141304e-05
0.000116482535
0.000145046923
0.000181301538
0.000227435573
0.000286280193
0.000361499557
0.00045783908
0.000581448069
0.000740299107
0.000944733159
0.00120816814
0.00154801989
0.00198689915
1.10363218e-08
1.12257341e-08
1.16070992e-08
1.21869876e-08
1.29754278e-08
1.39859644e-08
1.52360409e-08
1.67472586e-08
1.85456165e-08
2.06622041e-08
2.3133542e-08
2.60023867e-08
2.93183541e-08
3.31388846e-08
3.75302502e-08
4.25686787e-08
4.83418614e-08
5.49503561e-08
6.25095637e-08
7.11518037e-08
8.1028656e-08
9.23139633e-08
1.05206848e-07
1.19935798e-07
1.36762796e-07
1.55988495e-07
1.77958262e-07
2.03069045e-07
2.3177741e-07
2.64609196e-07
3.02170811e-07
3.45162213e-07
3.94392926e-07
4.5080055e-07
5.15473109e-07
5.89675899e-07
6.74883405e-07
7.72818597e-07
8.85499847e-07
1.01529855e-06
1.16500984e-06
1.33793896e-06
1.53800848e-06
1.76989101e-06
2.03917417e-06
2.35256725e-06
2.71815981e-06
3.14574729e-06
3.64724228e-06
4.2371946e-06
4.93345234e-06
5.75800269e-06
6.73804482e-06
7.90736204e-06
9.30807897e-06
1.09929172e-05
1.30280943e-05
1.54970562e-05
1.85052868e-05
2.21865157e-05
2.67107367e-05
3.22945739e-05
3.92146984e-05
4.78251995e-05
5.85800952e-05
7.20625185e-05
8.90225747e-05
0.000110426472
0.000137520305
0.000171912878
0.000215683313
0.000271520841
0.000342906485
0.000434349206
0.000551692854
0.000702515223
0.000896646826
0.00114684537
0.0014696725
0.00188663362
1.04215282e-08
1.06005393e-08
1.09609795e-08
1.15090836e-08
1.22542986e-08
1.32094679e-08
1.4391095e-08
1.58195893e-08
1.75195929e-08
1.95204694e-08
2.18568252e-08
2.4569115e-08
2.77042722e-08
3.13166649e-08
3.54690014e-08
4.02334665e-08
4.56930326e-08
5.19428799e-08
5.9092292e-08
6.72665043e-08
7.6609016e-08
8.72844271e-08
9.94812803e-08
1.13415967e-07
1.2933648e-07
1.47527607e-07
1.68316426e-07
1.92078819e-07
2.19247273e-07
2.50319841e-07
2.85870863e-07
3.26563428e-07
3.73164355e-07
4.26561831e-07
4.87786604e-07
5.58037381e-07
6.38711038e-07
7.31439949e-07
8.38136392e-07
9.61047145e-07
1.10282051e-06
1.26658807e-06
1.45606655e-06
1.67568318e-06
1.93073248e-06
2.22757176e-06
2.57386636e-06
2.97889839e-06
3.45395632e-06
4.01282833e-06
4.67242871e-06
5.45359543e-06
6.38210723e-06
7.48998511e-06
8.81715899e-06
1.04136073e-05
1.23421073e-05
1.46817767e-05
1.75326375e-05
2.10215079e-05
2.53096132e-05
3.06024278e-05
3.71624132e-05
4.53255145e-05
5.55225409e-05
6.83068891e-05
8.43905106e-05
0.000104690596
0.00013039019
0.000163016918
0.000204545278
0.000257529561
0.000325276614
0.000412070441
0.000523464194
0.000666659826
0.000851001746
0.00108861869
0.00139525833
0.00179137229
9.84325882e-09
1.00124849e-08
1.03532283e-08
1.08713677e-08
1.15758681e-08
1.24788796e-08
1.35960068e-08
1.4946561e-08
1.65538889e-08
1.84457423e-08
2.06549046e-08
2.32196237e-08
2.61843617e-08
2.96005595e-08
3.35275722e-08
3.80337281e-08
4.31976001e-08
4.910926e-08
5.58721795e-08
6.36049654e-08
7.24434577e-08
8.25434967e-08
9.40836941e-08
1.07268892e-07
1.22334003e-07
1.39548743e-07
1.59222874e-07
1.81712439e-07
2.07427096e-07
2.36838664e-07
2.7049113e-07
3.09012759e-07
3.53129939e-07
4.03684174e-07
4.61652004e-07
5.28169109e-07
6.04559066e-07
6.92368481e-07
7.9340925e-07
9.09810329e-07
1.04408101e-06
1.19918871e-06
1.37865531e-06
1.58667594e-06