/*--------------------------------*- C++ -*----------------------------------*\
| =========                 |                                                 |
| \\      /  F ield         | OpenFOAM: The Open Source CFD Toolbox           |
|  \\    /   O peration     | Version:  v2006                                 |
|   \\  /    A nd           | Website:  www.openfoam.com                      |
|    \\/     M anipulation  |                                                 |
\*---------------------------------------------------------------------------*/
FoamFile
{
    version     2.0;
    format      ascii;
    class       volScalarField;
    location    "0.0391000018";
    object      ducSensor;
}
// * * * * * * * * * * * * * * * * * * * * * * * * * * * * * * * * * * * * * //

dimensions      [0 0 0 0 0 0 0];


internalField   nonuniform List<scalar> 
14400
(
0
0
0
0
0
2.73812173e-05
0
0.000193353667
0
0.000206307278
0
0.000129507043
0
1.39108687e-05
0
0
0
0
0
0
0
0
0
0
0
0.000983656582
0
0.00413516771
0
0.00379717134
0
0.000607178298
0
0.000201102751
0
0
0
0
0
0
0
0
0
0
0
0
0
0
0
0
0
0
0
0
0
0
0
0
0
0
0.00107793441
0
0
0
0
0
0
0.000451748738
0
0.00136427991
0
0.000386543994
0.000179847183
0
0.00042118259
0.000101956117
0
0
0
0
0
4.37934645e-05
0
0.000182174111
0
0.000298074821
0
0.000378685788
0
0.000402885723
0
0.000373529121
0
0.000299177769
0
0.000198295466
0
5.44694253e-05
0
0
0
0
0
0
0
0
0
0
0
0
0
0
0
0
0
0.000247313716
0
3.40170414e-05
0
0
0
0
0
0
0
0
0
0
0
0
0
0
0
0
0
0.000511426537
0
0.00123967556
0
0.00162088643
0
0.00327789518
0
0
0
0
0
0.000668890372
2.12018341e-06
0.00150976473
0.00299629422
0
0.00031260388
0
0.000616438719
0
0.000257137913
0.000738104539
0.000280218137
0.000414929182
0
1.52630561e-05
0
5.66603448e-05
0
9.03009704e-05
0
0.000116692911
0
0.000134588199
0
0.0001432721
0
0.000141601726
0
0.000127297832
0
9.62309153e-05
0
4.12334224e-05
0
0
0
0
0
0
0
0
0
0
0
0
0
0
0
0
0.00221242878
0.00427469479
0.00286401364
0.00473853934
0.00306724545
0.00489518423
0.00337778727
0.00476763167
0.003835223
0.00469128108
0.00422255355
0.00480722003
0.00462674235
0.00495364503
0.00544456362
0.00478414868
0.00628201665
0.00405916294
0.0069856406
0.00294193388
0.00678374127
0.00182709344
0.00718954062
0.00251115167
0.00688272711
0.00418101388
0.00196186345
0.00509631514
0.00192008055
0.00375863931
0.0034878621
0.00476636516
0.00231469459
0.00384045646
0.00332710509
0.00233605918
0.00264336555
0.0026640238
0.00210494714
0.00113200398
0.00141166215
0.00121286411
0.000178586141
0
0
2.26391887e-05
0
9.22870557e-05
0
0.000151594793
0
0.000200486429
0
0.000237002875
0
0.000261322886
0
0.000274493824
0
0.000277321114
0
0.000268940583
0
0.000246593354
0
0.000204924459
0
0.000134959032
0
2.23492633e-05
0
0
0
0
0
0
0
0
0
0
0
0
0.00420600671
0.00726300162
0.00492219733
0.00705981343
0.00492240804
0.00679944406
0.00492920598
0.00698963781
0.00469622971
0.00693562089
0.00455075824
0.00707789482
0.00441946442
0.00716856281
0.00496471249
0.00755977595
0.00631431342
0.00829668905
0.00802110398
0.0093790264
0.00741452427
0.00955897962
0.00710681398
0.00708762208
0.00650825039
0.0101222084
0.0104736533
0.00857108823
0.00874607293
0.00894535445
0.00736409063
0.00677879058
0.00662358875
0.00699262993
0.00721459474
0.00559901535
0.00421655408
0.00412406296
0.00332553254
0.00219291376
0.00119940267
0.000280530307
6.27042725e-06
4.40263406e-05
0
0.000132825679
0
0.000204368542
0
0.000271290973
0
0.000332859146
0
0.0003904759
0
0.000447085605
0
0.000505661895
4.40155495e-05
0.000568132257
0.00011997226
0.00063479335
0.000208910549
0.000704040834
0.00030593327
0.00077138698
0.000403029525
0.000829914974
0.000488405369
0.000868798475
0.000545652301
0.000873104172
0.000554048144
0.00082505382
0.000493252852
0.00072002488
0.000378119084
0.000667174811
0.000549596803
0.00163991103
0.00441467072
0.0176225853
0.0184770545
0.0199774509
0.018617758
0.0198835684
0.0182976417
0.0197138295
0.0180142725
0.0194522571
0.0177577204
0.0187909494
0.0172585396
0.0180952919
0.0163097164
0.0177442693
0.014844679
0.0177269648
0.012887395
0.0182091561
0.0124943528
0.0187045568
0.0128678588
0.0180187619
0.0125271506
0.0147689159
0.0130289776
0.0143008248
0.0124577104
0.0130155074
0.0116256782
0.0116116237
0.0139794784
0.0126482544
0.0117007904
0.0111877783
0.0109301264
0.00914125315
0.00693970516
0.00542715064
0.00280106496
0.000541509199
3.78186943e-06
1.04967165e-05
2.18070548e-05
2.17358828e-05
3.39051361e-05
2.94097321e-05
4.78155266e-05
3.96066828e-05
6.49240918e-05
5.33493496e-05
8.6043563e-05
7.13743703e-05
0.000112108127
9.43739501e-05
0.000144087817
0.00012292765
0.000182717942
0.000157252926
0.000228107513
0.000196796627
0.000279207065
0.000239677533
0.000333233001
0.000282035382
0.000385080274
0.000317374147
0.000426690397
0.000335718459
0.00044622471
0.00032293933
0.00042709035
0.000260703688
0.000345292603
0.000128621163
0.000167602236
0
0
0
0
0.000956944678
0.00749141542
0.0129697987
0.0113771383
0.0127458937
0.0116531182
0.0128705704
0.0117685723
0.0127805611
0.011897865
0.0130060817
0.0118466482
0.013045541
0.0114359666
0.0128782264
0.0111130277
0.0125569105
0.0114730656
0.0129420319
0.0117431383
0.0145270703
0.0106727726
0.0137329681
0.0102174654
0.0148585379
0.0114359145
0.0151369178
0.0124748279
0.0148629568
0.0122829329
0.0143567431
0.0153918445
0.0143904163
0.0157841617
0.0141172707
0.0138498649
0.0144354229
0.0132367082
0.010877927
0.00821855394
0.00307671206
3.53747954e-06
0
7.95993598e-05
0
0.000170152194
0
0.000255840172
0
0.000326777245
0
0.000378992947
0
0.000413968975
0
0.000435100158
0
0.000445281714
0
0.000445919356
0
0.000436640357
0
0.000415192823
0
0.000377258907
0
0.000315754828
0
0.0002195616
0
7.09054462e-05
0
0
0
0
0
0
0
0
0
0
0
0.00142981912
0.00012572058
0.000703653534
0.000518379877
0.000294484231
0.000784359478
7.94971532e-05
0.00128182722
0
0.00210763821
0
0.00338353381
0
0.00494946134
0.000659743453
0.00487099507
0.0031798555
0.00363214529
0.00350243282
0.00189910357
0
0.00506577127
0.00242262326
0.00196444054
0.000725978506
0.00228323681
0.00260015786
0.00330413118
0.00353254287
0.00696875791
0.00884244066
0.00887654308
0.0120447461
0.0134977313
0.0165034875
0.0162760457
0.0142266021
0.00542813623
0
3.71233939e-05
0
0.000184010937
0
0.000327393941
0
0.000451211321
0
0.000539184532
0
0.000587809566
0
0.000600442255
0
0.000581221176
0
0.00053224788
0
0.000452913326
0
0.000340204225
0
0.000189203138
0
0
0
0
0
0
0
0
0
0
0
0
0
0
0
0
0
0
0
0
0
0
0
0
0
0
0
0
0
0
0
0
0
0
0
0
0
0
0
0
0
0
0
0
0
0
0
0
0
0
0
0.000484710337
0.00668760684
0.0122157223
0.0202169593
0.0106615545
2.52839285e-06
0
9.15009472e-05
0
0.000209983079
0
0.000325434925
0
0.000417755658
0
0.000478182271
0
0.000507307763
0
0.000508804212
0
0.000485493146
0
0.000437900128
0
0.000364114093
0
0.000260028717
0
0.000119480741
0
0
0
0
0
0
0
0
0
0
0
0
0
0
0
0
0
0
0
0
0
0
0
0
0
0
0
0
0
0
0
0
0
0
0
0
0
0
0
0
0
0
0
0
0
0
0
0
0
0
0
0
0
0.0145856988
0.0128100701
0
1.69171245e-05
0
8.15480601e-05
0
0.000148420358
0
0.000208348237
0
0.000252441843
0
0.000278838634
0
0.000289191547
0
0.000285572694
0
0.00026904124
0
0.00023924903
0
0.000194486685
0
0.000131648204
0
4.56849571e-05
0
0
0
0
0
0
0
0
0
0
0
0
0
0
0
0
0
0
0
0
0
0
0
0
0
0
0
0
0
0
0
0
0
0
0
0
0
0
0
0
0
0
0
0
0
0
0
0
0
0
0
0
0
0.00968220701
5.22479692e-06
0
6.47663496e-05
0
0.000137115826
0
0.000213002161
0
0.000281390467
0
0.000338417839
0
0.000385976957
0
0.000428070216
0
0.000468631328
0
0.000510709607
0
0.000556240219
0
0.000605933764
0
0.00065918281
1.09272983e-05
0.000713916847
8.51541171e-05
0.000766326494
0.000164145381
0.000810048025
0.000241957892
0.000836242749
0.000305965029
0.000827445704
0.000340275842
0.000759671568
0.000312642318
0.000593334217
0.000173236036
0.000278646404
0
0
0.00182356569
0.00621297548
0.00769155921
0.00678845342
0.0070684129
0.00684378058
0.00647570121
0.00661703843
0.00604623987
0.00607422648
0.00636152171
0.00535775255
0.00686507813
0.00558174383
0.00495409063
0.00352362725
0.00260193264
0.000464022574
0.0017989574
0.00255524182
0.00388239647
0.00470420115
0.00137365663
0.00419132479
0
0.00441125303
0
0.00405842109
0.000242755817
0
0
0
0
0
0
0
0
0
0
0
0
0
0
0
0
0
0
0
0
0
0
0
0
0
0
0
0
0
0
0
0
0
0
0
0
0
0
0
0
0
0
0
0
0
0
0
0
0
0
0
0
0
0
0
0
0
0
0
0
0
0
0
0
0
0
0
0
0.00190104075
0
0.00163555742
0
0.00086183706
0
0.00216344372
0
0
0
0
0.000279925789
0
0.00517038433
4.44849205e-05
0
0.0123093983
0
0
0
9.32858954e-06
0
0.000246005251
0
0.000596857273
0
0.000965273808
0
0.0012750689
0
0.00149840102
0
0.00164074765
0
0.00171873695
0
0.0017479021
0
0.00173845971
0
0.0016951162
0
0.00161822827
0
0.00150526159
0
0.00135238797
0
0.00115555538
0
0.000910596523
0
0.000611580664
0
0.000247243495
0
0
0
0
0
0
0
0
0
0
0
0
0
0
0
0
0
0
0
0
0
0
0
0
0
0
0
0
0
0
0
0
0
0
0
0
0
0
0
0.000786138235
0
0.00196649664
0.0175413096
0
0
2.66559325e-06
0
7.24838454e-05
0
0.000181028989
0
0.000296959436
0
0.000396259323
0
0.000470664772
0
0.000522345305
0
0.000557053606
0
0.000580329381
0
0.000596207976
0
0.000607078075
0
0.000613888292
0
0.000616345963
0
0.000613053216
0
0.000601532682
0
0.000577960736
0
0.000536477438
0
0.000467782302
0
0.000356193003
0
0.00017205869
0
0
0
0
0
0
0
0.0026593096
0
0.00319824663
0
0.00321426294
0
0.00264728616
0
0.00157849002
0
0
0
0
0
0.00153310626
0
0
0
0
0.000940928998
0
0.0035329986
0
0.0022073772
0
0
0
0
0.00498175633
0
0
0.014455157
0
0
0
4.02727996e-05
0
0.00019435689
0
0.000374264368
0
0.000541273493
0
0.000669975395
0
0.000756649091
0
0.000807507012
0
0.00083023765
0
0.000830337899
0
0.000810117007
0
0.000769261391
0
0.000705262573
0
0.000614337996
0
0.000492483604
6.64443812e-05
0.000336304283
0.000306334361
0.000143602547
0.000565709899
0
0.000826892262
0
0.00105239284
0
0.00119625994
0
0.00120214502
0
0.000948180516
0
0
0.00443688752
0.00239774024
0.00648948032
0.00428373504
0.00555302515
0.00555314079
0.00623783175
0.0056970576
0.00687783986
0.00529650484
0.00516849555
0.00317966821
0.00965137957
0
0.00949719314
0
0.0143309033
0
0.0195976438
0
0.0211693554
0
0.0191367585
0
0.00615607282
0.00426020852
0
0.0170098109
0
0.00243927057
0.00350889863
0
0
0
0
0
0.000294037522
0
0.00150678197
0
0.00297549775
0
0.00435245124
0
0.00543124325
0
0.00618570204
0
0.00667332999
0
0.00696637429
0
0.00712246718
0
0.00717848086
0
0.00715275213
0
0.00704932852
0
0.0068671762
0
0.00660198283
0
0.00625534584
0
0.00583880013
0
0.00537240824
0
0.00488499495
0
0.00441222871
0
0.0039996536
0
0.00371767722
0
0.00365500223
0
0.0102610101
0
0.0160393616
0
0.0128952524
0
0.010594437
0
0.0105873748
0
0.0143734569
0
0.015638322
0
0.0220995731
0
0.0199899083
0
0.0203004392
0
0.0171192513
0
0.00794626191
0
0
0.013960345
0
0.0156048044
0
0
0.0190904564
0
0
0
0
0
0.000300214614
0
0.00160865885
0
0.00323028268
0
0.00475019554
0
0.00593995896
0
0.00677183675
0
0.00731084066
0
0.00763837751
0
0.00782032018
0
0.00789996285
0
0.00790125556
0
0.00783310526
0
0.00769999502
0
0.00750164971
0
0.0072464172
0
0.00694824691
0
0.00663499001
0
0.00633907827
0
0.00609826334
0
0.00594753916
0
0.00593565461
0
0.00638298106
0
0.0107405934
0
0.019044883
0
0.0180004396
0
0.0164494321
0
0.0133384758
0
0.0107485312
0
0.0110990218
0
0.00610585032
0
0.00166829132
0
0
0
0
0.00455891233
0
0.00532599675
0
0.00456252929
0
0
0
0
0.00777216392
0
0
0
0
0
0.000173937809
0
0.000959103041
0
0.00195093428
0
0.00288323275
0
0.00361999162
0
0.00414693958
0
0.00450590899
0
0.00474926235
0
0.00492034626
0
0.00504970119
0
0.00515650676
0
0.00525134343
0
0.00533875605
0
0.00542011558
0
0.00549649603
0
0.00557124019
0
0.00565130883
0
0.00574761076
0
0.00587578625
0
0.00605824939
0
0.00634948391
0
0.00716218433
0
0.007302327
0
0.0160741063
0
0.0192813023
0
0.0213166516
0
0.0225783283
0
0.0191289059
0.00555437068
0.00752486362
0.0117470665
0
0.0162973827
0
0.0226349777
0
0.0310653461
0
0.0331408283
0
0.0180367379
0
0
0.00388909142
0
0.00345421392
0
0
0
0
0
0
5.58649566e-06
0
0.000168161279
0
0.000475172095
0
0.000801753658
0
0.00107206075
0
0.00126218742
0
0.00137769201
0
0.00143343198
0
0.00144267944
0
0.00141375549
0
0.00135006357
0
0.00125138169
0
0.00111579681
0
0.000942106555
0
0.000733097227
0
0.000498448187
1.24228304e-05
0.000256920727
0.000320888935
3.92185574e-05
0.000581054648
0
0.000731776345
0
0.000694147639
0
0.000410921425
0.000336605178
0
0.00232206338
0
0.0132704025
0
0.0134100974
0.00271657901
0.0117694673
0.00433374786
0.0136064688
0.00272963793
0.0156014319
0
0.0128768154
0
0.0210779912
0
0.0281772554
0
0.0301825068
0
0.0372650802
0
0.0323501413
0
0.0162138618
0
0
0.0156349785
0
0.00730392494
0
0
0
0
0
0
1.96598945e-05
0
0.00049922076
0
0.00143337951
0
0.00243371665
0
0.00327821585
0
0.00390044388
0
0.00432211783
0
0.00459377264
0
0.00476297585
0
0.00486438975
0
0.00491961791
0
0.00493999456
0
0.00493016973
0
0.00489191814
0
0.00482856094
0
0.00474996258
0
0.00467541362
0
0.00464698448
0
0.00470789953
0
0.00493637511
0.000146849134
0.00541441563
0.000231064922
0.00646529046
2.63766143e-05
0.00943970743
0
0.0245337909
0
0.0287577822
0
0.0263007489
0
0.0240317135
0
0.0212850203
0
0.0273845033
1.89685378e-05
0.0237933938
0
0.0261919247
0
0.0284037856
0
0.0197435677
0
0.0188006447
0
0.00866303915
0
0
0.00720028798
0
0.0011633781
0
0
0
0
0
0
3.1387516e-05
0
0.000789782916
0
0.00232526344
0
0.00396878609
0
0.0053607217
0
0.00639653105
0
0.00711498032
0
0.00760174494
0
0.00793875268
0
0.00818764393
0
0.00839017108
0
0.00857204795
0
0.00874798385
0
0.00892601829
0
0.00911237653
0
0.00931718874
0
0.00956589914
0
0.00990064446
0
0.0103491583
0
0.0109950547
0
0.0119901164
0.00059061879
0.0137603312
0.00173333783
0.0179096778
0.00461961654
0.0318485765
0.00971962971
0.0421468714
0.0103824499
0.0383773003
0.0120409151
0.0327294513
0.0167583783
0.0327756969
0.0167233136
0.021607622
0.0106101396
0.0173507121
0.0104621653
0.0123754546
0.00983362763
0.0054858508
0.00934741702
0.000880977762
0
0
0
0.00676801389
0
0.00816685883
0
0
0.00816871051
0
0
0
0
0
0
1.57379476e-05
0
0.000395357941
0
0.00119043598
0
0.00204117383
0
0.00276805557
0
0.00332139834
0
0.00372400916
0
0.00402269128
0
0.0042629779
0
0.00448113019
0
0.0047042287
0
0.00495224353
0
0.00524017422
0
0.00557995875
0
0.00598305807
0
0.00646433008
0
0.0070445941
0
0.00774784552
0.000529601286
0.00859294874
0.00135579264
0.00959580664
0.00240768969
0.0107903963
0.00368655966
0.0122339489
0.00574564329
0.015222071
0.0109579031
0.0231119935
0.0256343644
0.0338224451
0.0267504473
0.0367511266
0.0256257479
0.041113066
0.0193583284
0.0320792954
0.0179950184
0.0295870066
0.0241943213
0.0240506761
0.0210015103
0.0161042009
0.0145565674
0.0100513604
0.00766150296
0.00611984469
0.00412596679
0
0.00888045123
0
0.00168373912
0
0
0
0.0130971942
0
0
0
0
0
0
1.13228203e-05
0
0.000337696751
0
0.00106244709
0
0.00183713181
0
0.00249342022
0
0.00298472303
0
0.00333107776
0
0.00357438727
0
0.00375464417
0
0.00390249972
0
0.00403908575
0
0.0041777042
0
0.00432625768
0
0.00448950232
0
0.00467163875
0
0.00486386829
0
0.0050763468
0
0.00535515122
0
0.00575666032
1.50828581e-05
0.00645134402
0.000810544818
0.00770405674
0.00145916748
0.00977146637
0.00217817051
0.0136933171
0.00403108115
0.0214660484
0.0112144739
0.0335266746
0.0132943692
0.0314024514
0.00956271182
0.0282299827
0.00970244098
0.0297501138
0.00441962327
0.0303591637
0
0.0275927341
0
0.0250490258
0
0.0175074977
0.00345146121
0.00823918698
0.0106295325
0.00141804831
0.0135001579
0
0.0106932769
0
0
0
0.00472295638
0
0
0
0
0
0
5.4350518e-06
1.72641702e-05
4.90081314e-05
6.48342457e-05
0.000120234036
0.000113994859
0.000201173965
0.000170126938
0.000297280599
0.000240607167
0.000415391383
0.000331381952
0.000564318168
0.000448579381
0.000755290981
0.000599369445
0.00100231462
0.000792398006
0.00132254846
0.00103778105
0.00173642157
0.00134624437
0.00226697823
0.00172479296
0.00293721114
0.00218537835
0.00377046419
0.00272032512
0.00477919826
0.003315377
0.00596815901
0.00396851205
0.00733340457
0.0046610202
0.00882636587
0.00536281216
0.0103327197
0.00614659206
0.0116142015
0.00709188644
0.0123216827
0.00855526938
0.0120972895
0.0109703365
0.0119135664
0.0152645443
0.0153617156
0.0344555944
0.0329504781
0.0209589281
0.0387239168
0.0317857832
0.032508456
0.0301458076
0.0394610584
0.0295769601
0.0307179843
0.0233026118
0.0272564655
0.0295662237
0.0172579815
0.0372585887
0.0105988853
0.0405126277
0
0.035525998
0
0.019805746
0
0.00232640602
0
0
0
0
0
0
0
0
0
0
0
0.000114561155
0
0.000810247404
0
0.00176133147
0
0.00264219463
0
0.00334472691
0
0.00386788858
0
0.00425809549
0
0.00457023261
0
0.00485176851
0
0.00514055008
0
0.00546653936
0
0.00585371006
0
0.00632949428
0
0.00689466732
0.00115364186
0.00759281179
0.00255065601
0.00846093959
0.00420517973
0.00953914345
0.00613389089
0.0108936805
0.0084113723
0.0126056736
0.0111907537
0.0148154106
0.0146610579
0.0179126967
0.0191336649
0.0232882346
0.0247008323
0.0340533484
0.0344775508
0.0595415589
0.0500003818
0.0790410607
0.0473730007
0.0615760814
0.0562648023
0.0480486628
0.0486308097
0.0549722368
0.0345825967
0.0573037083
0.026339003
0.0466221149
0.0218869293
0.0448649634
0.00253021725
0.0331179717
0
0.0257322874
0
0.0251287062
0
0.00270237972
0
0
0
0.00296198104
0
0
0
0
0
0
0
0.000168912065
0
0.00126729073
0
0.00279801498
0
0.00420385219
0
0.00530871814
0
0.00611132739
0
0.00668656681
0
0.00712109763
0
0.00748846759
0
0.00784526292
0
0.00823391728
0
0.00868684288
0
0.00922986617
0
0.00988571463
0
0.0106798779
0.00127677506
0.011648663
0.00319225382
0.0128524441
0.00540122648
0.0143895496
0.00793150507
0.0164104729
0.0108496922
0.019117875
0.0143713028
0.0227060494
0.0191652564
0.0276361942
0.0261824183
0.0352635491
0.0418260063
0.0536002743
0.0741946518
0.0601822679
0.0608859138
0.0581134342
0.0499415717
0.069070739
0.0264382418
0.0494753255
0.0458175776
0.0410367641
0.0406771312
0.0394973097
0.02285233
0.022814588
0.0139551843
0.0173967027
0.00014477322
0.0060890139
0
0.00914094182
0
0.00857477566
0
0.00969335418
0
0
0.001665976
0
0
0
0
0
0
0.000210691245
0
0.00164888246
0
0.00368997091
0
0.00554539665
0
0.00698895941
0
0.00802802295
0
0.00876655695
0
0.00932289646
0
0.00979723206
0
0.0102674047
0
0.0107936851
0
0.0114245381
0
0.0122015249
0
0.0131634977
0.000353058483
0.0143493442
0.0023763885
0.0157978793
0.00459941582
0.0175353374
0.00699462922
0.0195509143
0.00961502255
0.0218017388
0.0126922735
0.024367011
0.0166568238
0.0277972069
0.0220346341
0.0330143273
0.0308192445
0.0416171552
0.0526663633
0.0609732784
0.103618925
0.0676704554
0.108281025
0.0635140305
0.0924541158
0.0685850233
0.0330018633
0.0811823529
0.0504328531
0.047092759
0.0174046344
0.0355954785
0.0053486412
0.0343238643
0
0.0271027178
0
0.0298825681
0
0.012717093
0
0.0134100077
0
0.0111760398
0.000936674622
0.000378341175
0
0.00625739479
0.00342368396
0
0
0
0
0.000250353284
0
0.00202866266
0
0.00466499138
0
0.00702207869
0
0.00882028585
0
0.0100832904
0
0.0109499501
0
0.0115731718
0
0.0120814709
0
0.0125726425
0
0.0131191682
0
0.0137753223
0
0.0145859335
0
0.0155949126
0.00207427151
0.0168483819
0.00475658438
0.0183954366
0.00772553745
0.0202787579
0.0109237093
0.0225097884
0.0142492171
0.0250989382
0.0174256271
0.028285266
0.0201658578
0.0337822861
0.0225246645
0.0470940378
0.0271330715
0.0556569315
0.069504842
0.0523156686
0.0921989477
0.0685511894
0.098600862
0.0469654271
0.105847951
0.0586771146
0.0730808097
0.053166508
0.0120688726
0.0483846396
0.0246604431
0.0414546779
0.0121022315
0.027266986
0.00201435423
0.0219422924
0
0.0127716461
0
0.00250429867
0
0.0175041063
0
0.0203475071
0.012389521
0.0216167787
0.0194885155
0.0169410942
0.00893691893
0.00236362552
0
0
0
0.000311939684
0
0.00247630486
0
0.00590272278
0
0.00936842434
0
0.0132333862
0
0.0167160329
0
0.0166710282
0
0.0160916406
0
0.0157648645
0
0.0154690045
0
0.0156151652
0
0.0158730401
0
0.0161452845
0
0.0164423886
0
0.0167955068
0.00275693447
0.0172754946
0.00591752598
0.0180001667
0.00942370022
0.019165673
0.0133019935
0.0210934929
0.017611698
0.0241340318
0.0227504981
0.0279048621
0.0297938682
0.0302020502
0.0367250951
0.0332326971
0.0248853755
0.0656248822
0.0621048345
0.0931442747
0.0718484862
0.111529285
0.0935311916
0.0223099339
0.0636209623
0.0410161461
0.0491360652
0.0475373786
0.00730485535
0.00927798962
0
0.005377251
0
0
0
0
0
0.00343657873
0
0.0301208788
0
0.0439452389
0.0296932094
0.0306783086
0.0470792831
0.040045248
0.0320572836
0.0171433944
0
0
0
0.000408127549
0
0.00345127282
0
0.00869752424
0
0.0133785485
0
0.0167721342
0
0.0189221867
0
0.0201063358
0
0.0206075773
0
0.0206387068
0
0.0203417547
0
0.0198043271
0
0.0190757238
0
0.0181789611
0
0.0171285692
0
0.0159624797
0
0.0147822036
0
0.0137437498
0
0.0130045435
0
0.0126568613
0
0.0125762537
0.00163784628
0.0120547443
0.0057946399
0.00983246694
0.00966042604
0.0090302476
0.0127650717
0.0201996531
0.0532110652
0.0369373169
0.0221101424
0.0463987556
0
0.0500080635
0.0130959363
0.0166471734
0.0124613372
0
0
0.00196347063
0
0
0
0
0
0.0114626891
0
0.027301599
0
0.0403088799
0.0254554623
0.045417787
0.0477497435
0.0244264553
0.0476601545
0.0397015682
0.0492308578
0.0364145509
0.00865601148
0.000375441041
0
0.000447390133
0
0.00386998168
0
0.00974952586
0
0.0151340767
0
0.0191835852
0
0.0218824624
0
0.0234899897
0
0.0242900802
0
0.0244987566
0
0.0242554807
0
0.0236403921
0
0.0226943791
0
0.021432701
0
0.0198529073
0
0.017969279
0
0.0158719132
0
0.0137344121
0
0.0117399244
0
0.0100028961
0
0.00852859227
0
0.00711663824
0
0.00513804299
0
0.00149388051
0
0
0.00173110785
0
0
0
0
0.000285616674
0
0
0
0
0
0
0
0
0
0
0
0
0
0.016031897
0.00351164705
0.0384805069
0.0300228145
0.0349308061
0.0289643593
0.0200696938
0.0424636676
0.0217021723
0.0469661028
0.0514131175
0.0193309257
0.00253476814
0
0.000351585198
0
0.00317144567
0
0.00793153828
0
0.0123408232
0
0.0157108564
0
0.0179995372
0
0.0193950477
0
0.0201075526
0
0.0202880933
0
0.0200179184
0
0.0193225184
0
0.0181884279
0
0.0165925135
0
0.0145300014
0
0.0120208692
0
0.00914524857
0
0.00606394483
0
0.00293557393
0
0
0
0
0
0
0
0
0
0
0
0
0
0
0
0
0
0
0
0
0
0
0
0
0
0
0
0
0
0
0
0.00776007265
0.00583066401
0.0221054576
0.00126203897
0.0024838065
0
0
0.012636299
0.00265277522
0.0340893617
0.054013577
0.032631037
0.010863344
0
0.000299342787
0
0.00279319208
0
0.00687129291
0
0.0106822812
0
0.0136302923
0
0.0156501372
0
0.0168828334
0
0.017488818
0
0.0175698179
0
0.0171501498
0
0.0161980742
0
0.0146601704
0
0.0124723137
0
0.00958364227
0
0.00600561476
0
0.00185255533
0
0
0
0
0
0
0
0
0
0
0
0
0
0
0
0
0
0
0
0
0
0
0
0
0
0
0
0
0
0
0
0
0
0.00162407437
0
0.00961009708
0
0
0
0
0
0
0
0
0.0107888086
0.0351985406
0.0410755187
0.0132334549
0
0.000166068281
0
0.00170788711
0
0.00419784755
0
0.00652484405
0
0.00826460059
0
0.00932328432
0
0.00973757917
0
0.00954025029
0
0.00870458329
0
0.00713643934
0
0.00468992402
0
0.00120269435
0
0
0
0
0
0
0
0
0
0
0
0
0
0
0
0
0
0
0
0
0
0
0
0
0
0
0
0
0
0
0
0
0
0
0
0
0
0
0
0
0
0
0
0
0
0
0
0
0
0
0
0
0
0.0128811011
0.0456972117
0.0197264189
0
9.68079628e-05
0
0.00116736742
0
0.00290267634
0
0.00450361878
0
0.00557556045
0
0.00599672506
0
0.00571807002
0
0.00469417086
0
0.00277077008
0
0
0
0
0
0
0
0
0
0
0
0
0
0
0
0
0
0
0
0
0
0
0
0
0
0
0
0
0
0
0
0
0
0
0
0
0
0
0
0
0
0
0
0
0
0
0
0
0
0
0
0
0
0
0
0
0.00429604563
0
0
0
0.042361618
0.0192610699
0
4.1739099e-05
0
0.00068984961
0
0.0017136699
0
0.002574496
0
0.00301340129
0
0.00294204294
0
0.00232825319
0
0.00110540444
0
0
0
0
0
0
0
0
0
0
0
0
0
0
0
0
0
0
0
0
0
0
0
0
0
0
0
0
0
0
0
0
0
0
0
0
0
0
0
0
0
0
0
0
0
0
0
0
0
0
0
0
0
0
0
0
0
0
0.0201353019
0
0
0
0.0371496951
0.0226869132
0
7.21022177e-05
0
0.000875349915
0
0.00207963933
0
0.00311639326
0
0.0037235286
0
0.00382600662
0
0.0034200982
0
0.00248436067
0
0.000922605264
0
0
0
0
0
0
0
0
0
0
0
0
0
0
0
0
0
0
0
0
0
0
0
0
0
0
0
0
0
0
0
0
0
0
0
0
0
0
0
0
0
0
0
0
0
0
0
0
0
0
0
0
0
0.00483378767
0
0
0.0144291105
0.0187220809
0
0
0.0254870264
0.0181717843
0
5.94651706e-05
0
0.00072741951
0
0.00172244197
0
0.00256229823
0
0.00301975304
0
0.00302587909
0
0.00257100884
0
0.00162942837
0
0.000109888807
0
0
0
0
0
0
0
0
0
0
0
0
0
0
0
0
0
0
0
0
0
0
0
0
0
0
0
0
0
0
0
0
0
0
0
0
0
0
0
0
0
0
0
0
0
0
0
0
0
0
0
0
0
0
0
0
0
0.0206024075
0
0
0.0202124889
0.0194489597
0
5.54637474e-05
0
0.00073183571
0
0.00174114539
0
0.00259050341
0
0.00304885753
0
0.00304783368
0
0.00258121081
0
0.00162983297
0
0.000114961894
0
0
0
0
0
0
0
0
0
0
0
0
0
0
0
0
0
0
0
0
0
0
0
0
0
0
0
0
0
0
0
0
0
0
0
0
0
0
0
0
0
0
0
0
0
0
0
0
0
0
0
0
0
0
0.000332841277
0.00316662165
0
0
0.020836154
0
0.00980948919
0.0139872442
0
5.63666161e-05
0
0.000691136559
0
0.00162741458
0
0.00241412977
0
0.0028399395
0
0.00284268595
0
0.00241785064
0
0.00155023019
0
0.000173017924
0
0
0
0
0
0
0
0
0
0
0
0
0
0
0
0
0
0
0
0
0
0
0
0
0
0
0
0
0
0
0
0
0
0
0
0
0
0
0
0
0
0
0
0
0
0
0
0
0
0
0
0
0
0
0
0.0179621685
0
0
0.00360191284
0
0.00804830543
0.016141583
0
5.77551938e-05
0
0.000700422088
0
0.00164539236
0
0.00243981019
0
0.00287274347
0
0.00288271975
0
0.00246702106
0
0.00161381382
0
0.000263755675
0
0
0
0
0
0
0
0
0
0
0
0
0
0
0
0
0
0
0
0
0
0
0
0
0
0
0
0
0
0
0
0
0
0
0
0
0
0
0
0
0
0
0
0
0
0
0
0
0
0
0
0
0
0
0
0.00857365004
7.35767415e-05
0
0.00833335846
0
0
0.0105461005
0
3.90559194e-05
0
0.000596029456
0
0.00143498885
0
0.00212424429
0
0.00245943891
0
0.00237695624
0
0.00186657253
0
0.000906709451
0
0
0
0
0
0
0
0
0
0
0
0
0
0
0
0
0
0
0
0
0
0
0
0
0
0
0
0
0
0
0
0
0
0
0
0
0
0
0
0
0
0
0
0
0
0
0
0
0
0
0
0
0
0
0.00480752788
0
0
0
0
0
0.0177360863
0
1.7041646e-05
0.0126753909
0
5.93378157e-05
0
0.000687045531
0
0.00160203831
0
0.00237537767
0
0.00281093158
0
0.00285461049
0
0.00250924408
0
0.00177222848
0
0.000601935163
0
0
0
0
0
0
0
0
0
0
0
0
0
0
0
0
0
0
0
0
0
0
0
0
0
0
0
0
0
0
0
0
0
0
0
0
0
0
0
0
0
0
0
0
0
0
0
0
0
0
0
0
0
0
0
0.0104676244
0
0
0.018896351
0
0
0.00703340614
0
3.93536443e-05
0
0.00057695998
0
0.00138328366
0
0.00204425946
0
0.0023655267
0
0.00228674753
0
0.00179922864
0
0.000884925606
0
0
0
0
0
0
0
0
0
0
0
0
0
0
0
0
0
0
0
0
0
0
0
0
0
0
0
0
0
0
0
0
0
0
0
0
0
0
0
0
0
0
0
0
0
0
0
0
0
0
0
0
0
0
0
0
0
0.0315281937
0
0
0.0159891798
0
0
0.00998211786
0
4.48181859e-05
0
0.000617483673
0
0.00147254062
0
0.00217952304
0
0.00253810868
0
0.00248799656
0
0.00202316789
0
0.00112939582
0
0
0
0
0
0
0
0
0
0
0
0
0
0
0
0
0
0
0
0
0
0
0
0
0
0
0
0
0
0
0
0
0
0
0
0
0
0
0
0
0
0
0
0
0
0
0
0
0
0
0
0
0
0
0.00491700131
0
0
0
0
0
0.0117231696
0
0
0.00440131956
0
3.23245129e-05
0
0.000500095399
0
0.00120687738
0
0.00177847951
0
0.00203876189
0
0.00193195318
0
0.00144779156
0
0.000567258641
0
0
0
0
0
0
0
0
0
0
0
0
0
0
0
0
0
0
0
0
0
0
0
0
0
0
0
0
0
0
0
0
0
0
0
0
0
0
0
0
0
0
0
0
0
0
0
0
0
0
0
0
0
0
0.0239264199
0
0
0
0
0
0.0202651972
0
0
0.00784760669
0
5.61639756e-05
0
0.000668434403
0
0.00156588176
0
0.00231734929
0
0.00272786419
0
0.00274277549
0
0.00236299502
0
0.0015840296
0
0.000364302058
0
0
0
0
0
0
0
0
0
0
0
0
0
0
0
0
0
0
0
0
0
0
0
0
0
0
0
0
0
0
0
0
0
0
0
0
0
0
0
0
0
0
0
0
0
0
0
0
0
0
0.0240785752
0
0
0.00449789265
0.0177079857
0.0128611826
0
0
0.0148144402
0
0
0.0022440408
0
2.54020498e-05
0
0.00045765699
0
0.00112059591
0
0.00165269252
0
0.00188472246
0
0.00176315758
0
0.00127806697
0
0.000411874273
0
0
0
0
0
0
0
0
0
0
0
0
0
0
0
0
0
0
0
0
0
0
0
0
0
0
0
0
0
0
0
0
0
0
0
0
0
0
0
0
0
0
0
0
0
0
0
0
0
0
0
0
0.0539148163
0
0.000529830803
0.000925594425
0.00882276021
0
0.000627480759
0
0.00582465949
0
0
0.00615212396
0
5.14935784e-05
0
0.000643247012
0
0.00151828972
0
0.00224882999
0
0.00264218472
0
0.00264413966
0
0.0022549429
0
0.00146986538
0
0.000248620488
0
0
0
0
0
0
0
0
0
0
0
0
0
0
0
0
0
0
0
0
0
0
0
0
0
0
0
0
0
0
0
0
0
0
0
0
0
0
0
0
0
0
0
0
0
0
0
0
0.0317704931
0
0.0165574652
0
0
0.0101301601
0.0018689076
0
0
0
0.0152757004
0.000440339564
0
0.000473931709
0
1.84912003e-05
0
0.000388912562
0
0.000966660069
0
0.00141729103
0
0.00158149399
0
0.00140536754
0
0.000873465509
0
0
0
0
0
0
0
0
0
0
0
0
0
0
0
0
0
0
0
0
0
0
0
0
0
0
0
0
0
0
0
0
0
0
0
0
0
0
0
0
0
0
0
0
0
0
0
0
0
0
0
0
0.0317114153
0
0.0014990883
0
0.010091197
0
0.00721105821
0.0125498857
0.00411755109
0
0.0111654985
0.00298002792
0
0.00505024897
0
4.07037159e-05
0
0.000584035053
0
0.00140079708
0
0.00207518704
0
0.00242040511
0
0.00238325779
0
0.001962576
0
0.00115210984
0
0
0
0
0
0
0
0
0
0
0
0
0
0
0
0
0
0
0
0
0
0
0
0
0
0
0
0
0
0
0
0
0
0
0
0
0
0
0
0
0
0
0
0
0
0
0
0
0.0464553975
0
0.0235085862
0
0.0151195913
0
0.000668032737
0.0162972695
0
0
0.0359703458
0
0.0158140641
0
0
0
0
4.14263703e-05
0
0.00049584065
0
0.00116690972
0
0.00172113866
0
0.00200904744
0
0.00198784445
0
0.00165627327
0
0.00100923882
0
1.46102781e-05
0
0
0
0
0
0
0
0
0
0
0
0
0
0
0
0
0
0
0
0
0
0
0
0
0
0
0
0
0
0
0
0
0
0
0
0
0
0
0
0
0
0
0
0
0
0
0.0385097612
0
0.0171104917
0
0.0139073699
0
0.0171201602
0
0.00819847192
0
0
0
0.0186524096
0.00597747287
0
0.00429705647
0
2.60020145e-05
0
0.000478371358
0
0.00117864819
0
0.00173796898
0
0.00197654056
0
0.00183703939
0
0.0013077556
0
0.000368651073
0
0
0
0
0
0
0
0
0
0
0
0
0
0
0
0
0
0
0
0
0
0
0
0
0
0
0
0
0
0
0
0
0
0
0
0
0
0
0
0
0
0
0
0
0
0
0
0.00379717458
0.0248362936
0
0.0490679447
0
0.0159996764
0
0.00440206175
0.0101661186
0.0269651111
0
0.0117467677
0
0.0118219085
0.00242064001
0
0
0
4.59871536e-05
0
0.000523520731
0
0.00122468654
0
0.00181040001
0
0.00213220552
0
0.00214996203
0
0.00186646578
0
0.00128166463
0
0.000370388654
0
0
0
0
0
0
0
0
0
0
0
0
0
0
0
0
0
0
0
0
0
0
0
0
0
0
0
0
0
0
0
0
0
0
0
0
0
0
0
0
0
0
0
0.0173899461
0.0719284887
0
0.073799605
0.00682620326
0.0454664639
0
0.0180832373
0
0.0131443096
0
0.00978741503
0
0.0251416233
0
0.015607304
0.00486602623
0
0.00370632806
0
3.6248967e-05
0
0.000504149723
0
0.00121013403
0
0.00178988568
0
0.00208096484
0
0.00203664253
0
0.00165476379
0
0.000928853675
0
0
0
0
0
0
0
0
0
0
0
0
0
0
0
0
0
0
0
0
0
0
0
0
0
0
0
0
0
0
0
0
0
0
0
0
0
0
0
0
0
0
0
0
0
0
0.060851323
0
0.0736451507
0.0283917894
0.0486346993
0.0235346089
0.0265194349
0
0.0226490352
0.00348829844
0.014952859
0
0.0153752882
0
0.00594283863
0
0
0
0
3.57386767e-05
0
0.000473383414
0
0.00112854351
0
0.00167095426
0
0.00195600487
0
0.00194410551
0
0.00163686989
0
0.00103327938
0
0.000108488571
0
0
0
0
0
0
0
0
0
0
0
0
0
0
0
0
0
0
0
0
0
0
0
0
0
0
0
0
0
0
0
0
0
0
0
0
0
0
0
0
0
0
0.0999994735
0.0863077677