/*--------------------------------*- C++ -*----------------------------------*\
| =========                 |                                                 |
| \\      /  F ield         | OpenFOAM: The Open Source CFD Toolbox           |
|  \\    /   O peration     | Version:  v2006                                 |
|   \\  /    A nd           | Website:  www.openfoam.com                      |
|    \\/     M anipulation  |                                                 |
\*---------------------------------------------------------------------------*/
FoamFile
{
    version     2.0;
    format      ascii;
    class       volScalarField;
    location    "0.0391000018";
    object      nut;
}
// * * * * * * * * * * * * * * * * * * * * * * * * * * * * * * * * * * * * * //

dimensions      [0 2 -1 0 0 0 0];


internalField   nonuniform List<scalar> 
14400
(
7.35387854e-06
0.000426954022
0.000564144065
0.00067025547
0.000766150303
0.000859647494
0.000954299373
0.00105142296
0.00115106117
0.00125239947
0.0013539998
0.00145363858
0.00154842938
0.00163442646
0.00170660732
0.0017580838
0.00178381468
0.00177905462
0.00173803199
0.00165318782
0.00151543557
0.00131338149
0.00103199659
0.000660101894
3.6090804e-08
7.84836948e-10
1.55991703e-12
1.3155318e-10
3.0679147e-11
5.6720563e-15
2.88359044e-12
2.11926363e-13
2.46472844e-12
8.37274783e-10
1.52737091e-06
3.75458932e-05
5.24362359e-05
1.01451548e-05
2.2259926e-08
2.3551936e-06
4.0692348e-06
1.98916798e-05
9.84911182e-06
1.44445356e-05
5.56874858e-07
1.02160073e-06
2.85152286e-06
8.47072347e-08
4.99381732e-10
6.18537883e-08
1.12447604e-08
5.50611869e-11
3.56633384e-10
3.53984253e-08
6.65140461e-07
6.74950906e-07
1.91194043e-07
1.81233833e-07
8.6653244e-07
9.07638063e-07
4.4985896e-06
3.09908051e-06
4.2145187e-06
4.44596984e-06
4.57218633e-06
4.62860283e-06
4.69740886e-06
4.11661859e-06
5.06320385e-06
3.45549753e-06
5.30496416e-06
4.8445916e-06
5.388068e-06
5.0432269e-06
5.29494753e-06
5.41334931e-06
4.68019825e-06
4.64145452e-06
4.78900046e-06
4.73923619e-06
3.74874949e-05
0.000752005323
0.000960086451
0.00111811817
0.00126097473
0.00140384621
0.0015575127
0.00172832359
0.00191947297
0.00213207362
0.00236573732
0.00262047175
0.00289606326
0.0031913228
0.00350409444
0.00383298667
0.00417296332
0.0045179908
0.00486082923
0.00519269331
0.00550326923
0.00578026744
0.00601032433
0.00617750084
0.00626371414
0.00625046071
0.00611355484
0.00582795197
0.0053704495
0.00471986607
0.00385773308
0.00274632942
0.00141269007
6.97243997e-05
4.68658574e-07
6.27052918e-09
8.43299836e-10
2.78633617e-05
0.000176428117
9.30514288e-07
1.26693325e-05
1.85063075e-06
2.16572194e-06
7.96898392e-07
3.5679715e-05
2.10194314e-05
4.35794014e-05
5.59865051e-05
0.000106056724
7.07874267e-05
7.1191838e-05
9.08568681e-05
2.10100067e-05
2.78696598e-05
5.93612548e-05
7.49890737e-05
3.5628527e-05
2.09992777e-05
4.84634709e-06
7.37216841e-06
9.53647905e-06
1.00096121e-05
4.59959401e-06
5.73325785e-06
4.31613894e-06
5.256077e-06
4.48665072e-06
5.82625421e-06
4.86363647e-06
6.3067576e-06
5.10413495e-06
5.86448747e-06
4.89885621e-06
4.99008304e-06
5.49672011e-06
3.2243406e-06
4.34591245e-06
4.81942656e-06
4.57515436e-06
4.79602026e-06
3.11495553e-05
0.000708103265
0.000906475297
0.00106137183
0.00120760213
0.00136104688
0.00153052817
0.00172128923
0.00193671587
0.0021791869
0.00245054547
0.00275224723
0.00308534438
0.00345044711
0.00384756476
0.00427600295
0.00473417882
0.00521948674
0.00572807847
0.00625464029
0.00679208834
0.00733119632
0.00786018963
0.00836420681
0.008824835
0.00921946723
0.00952089206
0.00969676141
0.00970950467
0.00951639339
0.00907034604
0.00832220083
0.00722693251
0.00576389536
0.00399880393
0.00191131908
0.000184720055
9.51661871e-07
3.3149757e-08
6.04134682e-05
6.96239224e-07
8.5587047e-07
3.38336719e-07
6.47965675e-06
3.08555809e-07
1.03560341e-05
4.93046791e-06
2.74061579e-09
5.99858004e-12
3.28554883e-13
6.48443655e-12
7.09432303e-10
8.84076102e-06
1.72123484e-05
1.92326757e-06
3.160755e-07
4.25854071e-06
4.45634272e-06
9.25583892e-06
1.02577937e-05
4.48849378e-06
2.25041138e-06
5.25123334e-06
4.73818836e-06
4.62241812e-06
3.9429601e-06
4.46385258e-06
4.59455092e-06
3.86104137e-06
4.71031146e-06
4.11947034e-06
3.09662659e-06
3.58181593e-06
3.31931233e-06
2.18761585e-06
4.17375974e-06
5.12936108e-06
4.5332917e-06
4.78174615e-06
4.65553919e-06
2.36800811e-05
0.000647528764
0.000831618244
0.000977854191
0.00111939312
0.00127095701
0.00144039228
0.00163233192
0.00185001238
0.00209611952
0.00237313852
0.00268350056
0.00302950851
0.00341328822
0.00383657641
0.00430062496
0.00480592114
0.00535207861
0.0059375424
0.00655945613
0.00721334018
0.00789283927
0.0085893222
0.00929138189
0.00998433721
0.0106494009
0.0112631571
0.0117963743
0.0122136141
0.0124717645
0.01252013
0.0122992513
0.0117427564
0.0107795785
0.00934372946
0.00738698715
0.00493490013
0.00210413524
2.36689125e-05
2.17579524e-06
2.3454603e-05
2.11515772e-05
3.94648567e-05
1.01321257e-06
2.6846501e-05
2.44714519e-07
2.29789581e-08
2.51792702e-05
0.000123270185
0.00011409511
0.000157205518
0.000102110349
2.74690357e-05
5.7600878e-07
3.52086462e-08
5.66843285e-07
2.15521701e-06
5.07482711e-06
5.37381765e-06
5.07375421e-06
8.69492579e-07
4.04225137e-06
4.9395504e-06
4.76576204e-06
5.75263968e-06
5.26363693e-06
5.60862069e-06
5.06344216e-06
3.65805941e-06
5.74394798e-06
3.17171622e-06
3.92873715e-06
4.45420661e-06
4.15841056e-06
6.28840585e-06
7.11109293e-06
4.77589423e-06
4.79232138e-06
4.5720568e-06
4.58036638e-06
1.78516373e-05
0.000590097076
0.000760929823
0.000899253948
0.00103640866
0.00118564623
0.00135357108
0.00154415382
0.00176034069
0.00200489868
0.00228061983
0.00259045686
0.00293743721
0.003324624
0.00375490304
0.00423089609
0.00475466298
0.00532757812
0.00594998406
0.00662105974
0.00733845749
0.0080981262
0.00889391022
0.00971719856
0.0105564091
0.0113963057
0.0122173502
0.0129945894
0.0136969677
0.0142857505
0.0147139915
0.01492462
0.0148505869
0.0144136542
0.0135272931
0.0121011619
0.0100552316
0.00735289653
0.00421421434
4.35579e-10
1.41146441e-12
3.22378453e-06
2.63410962e-07
2.13675306e-05
1.105103e-06
3.70786864e-05
2.90616079e-05
1.01493347e-07
1.33608259e-11
1.55626083e-11
2.24251238e-11
4.72482166e-11
3.56157272e-07
2.70525173e-05
7.18880695e-05
8.47732193e-05
1.92631168e-05
1.21482534e-05
4.13008151e-06
2.27131333e-06
7.71669673e-06
5.45501765e-06
5.140793e-06
4.42204563e-06
6.49661912e-06
4.54999814e-06
5.21542852e-06
3.25365313e-06
6.36492137e-06
4.32097141e-06
5.49524559e-06
7.08165372e-06
3.45793083e-06
7.22227492e-06
7.19318924e-06
3.99179899e-06
4.83680919e-06
4.72855718e-06
4.74583633e-06
4.83269402e-06
1.34892821e-05
0.000538602729
0.000698003317
0.000829939411
0.000963802628
0.00111118532
0.00127755093
0.00146624241
0.00167998616
0.00192154819
0.00219393311
0.00250040857
0.00284448424
0.00322982572
0.0036601467
0.00413904999
0.00466984312
0.0052553075
0.00589744474
0.00659720025
0.00735417555
0.00816633858
0.00902970713
0.00993800608
0.0108822208
0.0118500688
0.012825281
0.013786772
0.0147075932
0.0155537933
0.0162830914
0.016843507
0.0171719254
0.0171929004
0.0168178989
0.0159463535
0.0144691931
0.0122823775
0.00931815641
0.00559455765
0.00103868118
6.12422455e-11
1.29247736e-05
1.67900269e-06
5.11859334e-06
4.8722079e-06
2.36361745e-05
5.00662166e-05
0.000195581955
0.000217493173
0.000192336469
0.000170764658
8.62926491e-05
3.42577946e-06
3.26205539e-09
5.39814172e-12
2.55264206e-11
8.00963167e-08
2.48436914e-06
6.95068457e-06
3.35215647e-06
6.26032618e-06
4.34140629e-06
4.51953618e-06
3.48206913e-06
5.33661369e-06
3.84183832e-06
5.68324758e-06
4.69529232e-06
3.5482905e-06
7.77151228e-06
4.15913961e-06
7.30012168e-06
4.93588325e-06
2.62395854e-06
4.45385097e-06
4.24483461e-06
4.79476656e-06
4.77391274e-06
4.73630661e-06
1.04357546e-05
0.00049485935
0.000644933031
0.000772233563
0.000904144163
0.00105049943
0.00121574281
0.00140265931
0.00161382412
0.00185198698
0.00212026353
0.00242209454
0.00276127382
0.00314181816
0.00356797809
0.00404399982
0.00457410438
0.00516211534
0.00581140445
0.00652439119
0.0073024557
0.00814537424
0.00905121327
0.0100157533
0.0110322746
0.0120909412
0.0131782396
0.0142762516
0.0153614907
0.0164040904
0.0173658877
0.0181996779
0.018846527
0.0192352934
0.0192794953
0.0188777687
0.017912257
0.0162529212
0.013766413
0.0103278002
0.00567062677
0.00039131048
6.57434951e-06
4.06635579e-06
1.06361922e-06
3.4654087e-06
1.6834146e-06
5.57133662e-10
2.72768713e-12
1.40057533e-11
7.03561515e-11
7.81231459e-11
3.30047855e-07
5.16204813e-07
3.0241705e-05
7.48573797e-05
3.19681571e-05
1.15335733e-05
1.49213877e-05
5.72594944e-06
5.30355255e-06
3.13468108e-06
3.90629429e-06
4.30295721e-06
4.11439741e-06
5.73215819e-06
4.50939689e-06
5.07158766e-06
4.04222847e-06
5.25428779e-06
2.51961202e-06
4.46348773e-06
4.90759026e-06
3.18271231e-06
3.68144567e-06
5.3867822e-06
4.86465599e-06
4.80629918e-06
4.91567208e-06
4.76439391e-06
8.27400556e-06
0.000459923174
0.000603243344
0.000728220933
0.000860038051
0.00100691225
0.00117234685
0.00135877358
0.00156862412
0.00180467535
0.00207005397
0.00236832851
0.00270337163
0.00307945844
0.00350103253
0.00397282554
0.00449948234
0.0050856846
0.00573559303
0.00645295465
0.00724037993
0.00809943285
0.00902981516
0.0100294235
0.0110935319
0.0122146736
0.0133818454
0.0145798909
0.0157887301
0.0169818459
0.0181256961
0.0191769385
0.0200824516
0.020774895
0.0211738932
0.0211798685
0.0206774001
0.0195290157
0.0175836068
0.0146767873
0.0106319212
0.00530491723
1.51166712e-06
6.3736946e-14
2.30691225e-06
3.14674475e-07
1.61224738e-05
3.05178272e-05
0.000219992952
0.000239857699
0.000244615566
0.000158215319
6.42327647e-06
9.22920984e-07
6.92948814e-06
2.09482928e-06
2.42562836e-05
8.46401009e-06
1.44807638e-05
1.5258495e-06
1.14481097e-06
3.98140206e-06
5.608909e-06
3.61647312e-06
4.50465757e-06
3.47934231e-06
5.15346829e-06
3.85839851e-06
4.39176247e-06
6.19606279e-06
3.95008801e-06
3.06411729e-06
3.72016718e-06
4.60341774e-06
7.8625752e-06
6.56048986e-06
5.37027552e-06
4.56379006e-06
4.79813942e-06
4.6945647e-06
6.65275902e-06
0.000429257325
0.00056751636
0.000691715842
0.000824661307
0.000972937713
0.00113936648
0.0013261099
0.0015355816
0.00177054397
0.00203418766
0.00233008114
0.00266221882
0.00303487466
0.0034527055
0.00392051102
0.00444333003
0.00502607067
0.00567358295
0.00639012534
0.00717939478
0.0080438532
0.00898471013
0.010001185
0.0110904111
0.012246706
0.0134612358
0.0147212864
0.0160093686
0.0173024482
0.0185701501
0.0197740173
0.0208645415
0.0217806812
0.0224454991
0.0227663011
0.0226289672
0.0218999182
0.0204208255
0.0180171725
0.014501018
0.00970806639
0.00265849
0.000177372897
1.85694036e-08
3.72638689e-06
1.40167679e-10
3.27241774e-08
4.44431805e-15
2.17953411e-14
1.27910558e-09
3.87487865e-09
5.76865407e-06
8.09900564e-05
8.87597545e-06
1.01244473e-06
6.48615264e-06
2.0948725e-05
1.74915599e-06
5.12553714e-06
1.18725353e-05
9.04904878e-06
4.9830603e-06
6.47036147e-06
5.23569369e-06
5.80366159e-06
4.64258686e-06
5.27095432e-06
4.77168912e-06
3.45413482e-06
6.26117188e-06
7.21206705e-06
5.34987858e-06
5.69217955e-06
6.10052498e-06
4.50503383e-06
4.71740122e-06
4.91846671e-06
4.74354224e-06
4.71480149e-06
5.26752131e-06
0.000398084417
0.000532110571
0.0006562101
0.00079051885
0.000940162293
0.00110745041
0.00129447048
0.00150364403
0.00173780968
0.00200023306
0.00229458934
0.0026249139
0.00299564563
0.00341150895
0.00387755535
0.00439896824
0.004981065
0.00562898382
0.00634762616
0.00714120539
0.00801312315
0.00896540719
0.00999853598
0.0111108261
0.0122981777
0.0135534269
0.0148658499
0.0162204009
0.0175966759
0.0189679563
0.0202993363
0.021546606
0.0226532973
0.0235495613
0.0241478688
0.0243422628
0.0240027026
0.0229763139
0.0210818838
0.0181192912
0.0138597279
0.00787646571
0.00122438637
0.000140872651
1.66420806e-05
2.800834e-05
4.3971524e-06
0.000238175606
0.000231861108
0.000165773797
7.37211706e-05
1.68979097e-05
2.79054586e-07
2.3986278e-05
6.69334978e-05
2.62655896e-05
2.16304962e-05
3.06568214e-06
6.51307448e-06
1.15227395e-05
3.60521732e-06
9.35356954e-06
4.06109954e-06
8.06536109e-06
3.74792758e-06
7.49871526e-06
4.48520879e-06
8.90786391e-06
5.25823465e-06
6.12271004e-06
8.1318902e-06
6.06458582e-06
7.63425523e-06
3.95081421e-06
4.29104774e-06
4.77512546e-06
4.90379504e-06
4.85509899e-06
4.6867608e-06
4.12039336e-06
0.000364976892
0.000494560433
0.000618302658
0.000753045367
0.000902747285
0.00106937796
0.00125503276
0.00146219818
0.00169381059
0.00195322241
0.00224418145
0.00257085614
0.00293777121
0.00334985496
0.00381231135
0.00433064441
0.004910434
0.0055573073
0.00627657679
0.0070731378
0.00795096656
0.00891294686
0.00996027989
0.0110922622
0.0123056743
0.0135944571
0.0149490614
0.0163558092
0.0177960832
0.0192450723
0.0206707092
0.0220315606
0.0232755474
0.0243367527
0.025134008
0.0255664032
0.025512011
0.0248224181
0.0233233624
0.0208116157
0.0170642669
0.0118394287
0.00393338275
0.000451472542
2.67544561e-05
4.69170452e-05
1.67271255e-05
7.14248264e-10
3.32704706e-06
7.22472504e-05
5.16014499e-05
2.35753878e-05
1.86318542e-05
8.0509778e-07
2.15837546e-06
7.01589052e-06
1.56257483e-05
2.65518476e-05
1.4866399e-05
3.43819219e-06
3.75831377e-06
3.11661942e-06
5.95126963e-06
4.74795478e-06
5.05579945e-06
4.07149082e-06
7.1241672e-06
4.16058008e-06
7.51424818e-06
4.97808952e-06
2.40872218e-06
5.36273128e-06
4.7037739e-06
3.8835818e-06
4.86497179e-06
4.81695761e-06
4.95704724e-06
4.88004042e-06
4.82988709e-06
3.24829507e-06
0.000335081808
0.000461487488
0.000585657635
0.000721112024
0.000870786054
0.00103652362
0.00122048405
0.0014252482
0.00165380286
0.00190954869
0.00219628784
0.00251822524
0.00287998317
0.00328657069
0.00374337727
0.00425609758
0.00483066365
0.00547307432
0.0061892369
0.00698466478
0.00786421024
0.0088316281
0.00988922862
0.0110373548
0.0122740059
0.0135942618
0.0149898386
0.0164483555
0.0179526294
0.0194795468
0.0209989138
0.0224717112
0.0238484826
0.0250667556
0.02604915
0.0266995665
0.0269014837
0.0265123259
0.0253641535
0.0232558
0.0199644107
0.015216712
0.008303506
0.000567093951
4.64624866e-06
3.88844014e-07
3.75578258e-07
0.000240843575
0.000101631073
5.78727385e-07
1.09677479e-05
7.4757999e-09
8.65788829e-09
2.94261613e-07
1.32991994e-06
1.41712304e-10
2.51652951e-10
8.08489461e-06
5.66312706e-06
3.90767639e-06
6.31922535e-06
4.54655079e-06
5.54702705e-06
3.97183378e-06
4.88130709e-06
5.09923563e-06
4.24659566e-06
6.22184333e-06
2.23674365e-06
5.29437252e-06
9.58983172e-06
4.07562477e-06
3.96933285e-06
4.81115724e-06
4.66889638e-06
5.03322089e-06
4.82613466e-06
4.82880705e-06
4.81567906e-06
2.6436826e-06
0.000310006778
0.000434619291
0.000560246785
0.000697067476
0.000847308857
0.00101284256
0.00119591702
0.00139918692
0.00162568421
0.00187887084
0.00216252092
0.00248092883
0.00283865155
0.00324085801
0.00369288224
0.00420071103
0.00477028616
0.00540811798
0.00612027129
0.0069130882
0.00779181635
0.00876141377
0.00982486999
0.0109840477
0.0122378833
0.0135831183
0.015012648
0.0165157322
0.0180767596
0.0196741986
0.0212801349
0.0228570562
0.0243588166
0.0257242971
0.0268807353
0.0277330937
0.0281711094
0.0280529307
0.0272180407
0.0254638979
0.0225713416
0.0182561207
0.0121674525
0.00335943216
0.000424681347
4.31311443e-06
3.22458935e-06
2.70974287e-07
0.000250321175
0.000232675232
4.98768745e-05
5.48861191e-05
4.85791562e-05
0.000117237909
0.000164874592
2.06383694e-05
1.73149461e-06
1.3402431e-07
6.94462497e-07
2.17984912e-06
7.02026336e-06
3.29489544e-06
4.61972295e-06
2.82849726e-06
5.75517325e-06
3.31961478e-06
5.35613708e-06
3.23828473e-06
7.50462377e-06
3.7303361e-06
1.62619228e-06
4.27629998e-06
3.01927035e-06
6.12760893e-06
4.34634757e-06
4.66516944e-06
4.62284258e-06
4.8293379e-06
4.84158886e-06
2.11496725e-06
0.000284302707
0.000407729383
0.000534970402
0.000672831831
0.000823175053
0.000988027366
0.0011697723
0.00137117018
0.00159530955
0.0018456618
0.0021260516
0.00244073604
0.00279434422
0.00319198507
0.00363912037
0.004141684
0.00470584231
0.00533810222
0.00604491542
0.00683273776
0.00770743997
0.00867429585
0.00973721088
0.0108986452
0.0121587396
0.0135151767
0.0149622828
0.0164907125
0.0180864717
0.0197301396
0.0213956196
0.0230486374
0.0246449911
0.0261283714
0.0274277208
0.0284549348
0.029100311
0.0292317008
0.0286859347
0.0272733812
0.0247622224
0.0208899147
0.0153420296
0.00681803868
0.00166575829
0.000144924306
4.75053116e-05
0.000204402546
6.79142195e-06
1.44759713e-05
7.28811183e-05
1.27625026e-05
7.32133319e-06
2.07198043e-06
2.23439214e-05
5.24386974e-06
3.66305101e-06
6.60956228e-08
2.81771043e-06
1.13807156e-05
4.32439209e-06
2.8815748e-06
5.45062747e-06
3.65083836e-06
4.80828864e-06
3.64890716e-06
4.62924325e-06
3.13769025e-06
3.51813511e-06
5.65833931e-06
5.28261187e-06
4.68062009e-06
4.66056872e-06
4.58478882e-06
3.80612939e-06
4.57031136e-06
4.54754219e-06
4.57850755e-06
4.79768599e-06
1.71124956e-06
0.000260076594
0.00038274649
0.000511497368
0.000649970639
0.000799982815
0.000963759601
0.0011438669
0.00134314569
0.00156477103
0.00181223539
0.00208943072
0.00240060612
0.00275050161
0.00314421508
0.00358739645
0.00408598619
0.00464645658
0.00527537168
0.00597964809
0.00676587921
0.00764058859
0.0086092883
0.00967671248
0.0108456649
0.0121172246
0.0134895429
0.0149579107
0.0165137018
0.0181438827
0.0198303121
0.0215478642
0.0232645862
0.0249371745
0.0265132871
0.027922293
0.0290824377
0.0298829016
0.0302013607
0.0298688838
0.0287119304
0.0264795035
0.0229490405
0.0177480349
0.0101975342
0.00105499003
2.83308005e-05
2.5661812e-07
6.29341348e-05
1.36015855e-05
1.42840651e-06
9.35270049e-10
1.35490668e-11
3.7431289e-06
1.55634234e-06
5.69228478e-11
8.49326084e-10
7.70910231e-11
3.47700924e-07
3.59171819e-06
1.3778849e-06
3.19588229e-06
6.46261483e-06
4.13013513e-06
4.5629508e-06
5.06836094e-06
5.41164174e-06
3.9655719e-06
5.89271623e-06
3.72622775e-06
3.53863407e-06
6.11460871e-06
5.28871069e-06
5.60919301e-06
3.94819448e-06
4.51923657e-06
4.50710713e-06
4.42371358e-06
4.65645016e-06
4.73121912e-06
1.36827967e-06
0.000235974484
0.000358526652
0.000488512314
0.000627080413
0.000776035762
0.000937986187
0.00111559892
0.00131180983
0.00152986307
0.0017731795
0.0020457953
0.00235177859
0.00269613016
0.00308367436
0.00352050611
0.00401221817
0.00456599389
0.00518800772
0.00588624959
0.0066669348
0.00753810208
0.00850496225
0.00957419695
0.0107484348
0.0120309633
0.0134199504
0.0149128205
0.0165013787
0.0181742794
0.0199147809
0.02169872
0.0234973462
0.0252672673
0.0269621485
0.0285097807
0.0298382575
0.0308332474
0.0313869292
0.0313247782
0.0304924022
0.0286288434
0.0255385928
0.020794547
0.0141219562
0.00402193742
0.000926781304
0.000365675604
8.90970771e-05
0.000360433763
0.000321060822
0.000161235039
9.36244446e-05
1.66039552e-05
6.81145025e-05
0.00019424694
9.53904931e-05
0.000117028811
8.14361815e-06
4.24716905e-06
5.36237485e-06
4.6640003e-06
5.16173358e-06
4.37009489e-06
5.52224674e-06
4.27612578e-06
3.76341283e-06
3.72239001e-06
3.70045187e-06
5.72075087e-06
4.94084634e-06
3.0504935e-06
4.77892211e-06
5.58875744e-06
3.79095976e-06
4.69815115e-06
4.6536436e-06
4.63770652e-06
4.6056691e-06
4.69098071e-06
1.1333719e-06
0.000216223915
0.000339635366
0.000471538929
0.000610674995
0.000759313828
0.000920314883
0.00109647619
0.00129081701
0.00150660608
0.00174727132
0.00201684489
0.00231936767
0.00265984705
0.00304306339
0.00347514681
0.00396165055
0.00450985634
0.00512593065
0.00581807945
0.00659258568
0.00745789551
0.00841940825
0.00948447985
0.0106560761
0.0119384418
0.0133301943
0.0148299484
0.0164299886
0.0181203613
0.0198847693
0.0217007
0.0235398284
0.0253609813
0.027118083
0.0287423515
0.0301613464
0.0312668659
0.0319479452
0.032042283
0.0313840927
0.0297387661
0.026870541
0.0224077062
0.016156214
0.00592945904
0.000524629751
9.34511503e-06
5.75372779e-11
2.87909402e-11
5.38158869e-10
4.51781684e-05
6.97635102e-09
1.65587197e-10
2.33891308e-08
9.15567755e-13
7.03340245e-06
1.03126274e-05
2.04079206e-05
1.17327768e-05
1.26403635e-05
4.2283752e-06
4.87974806e-06
4.22252231e-06
6.91317884e-06
3.82021059e-06
6.8220621e-06
3.60130899e-06
6.74739417e-06
3.63213136e-06
6.3595832e-06
7.62571956e-06
4.17408872e-06
5.01280306e-06
5.00982882e-06
5.11924034e-06
4.76525042e-06
4.7980434e-06
4.68809585e-06
4.65886747e-06
9.15705285e-07
0.000194789705
0.000318961972
0.000451930522
0.000590744037
0.00073808086
0.000897109196
0.00107080468
0.00126225973
0.00147475027
0.00171176599
0.00197727414
0.00227542622
0.00261110871
0.00298930089
0.00341597182
0.00389700441
0.00443949711
0.00505013873
0.00573696467
0.00650704439
0.0073687236
0.00832851844
0.00939382693
0.0105690641
0.0118587426
0.0132631464
0.0147814907
0.0164077153
0.0181330298
0.0199425388
0.021815977
0.0237258795
0.0256351827
0.0274975608
0.0292512415
0.0308212669
0.0321108492
0.0330020542
0.0333513973
0.032976331
0.0316773401
0.0291727295
0.025204158
0.0194402858
0.0101958193
0.00327745917
0.000634039425
0.000336409152
0.000374485831
0.000390082135
4.19567789e-05
0.000137420228
0.000149039111
0.000143244359
0.000166195179
6.99403796e-05
1.09401393e-05
2.28353537e-06
1.13315904e-05
8.09757689e-06
8.89421856e-06
5.16884945e-06
4.08477953e-06
5.92020742e-06
4.50679071e-06
4.84201665e-06
5.41304743e-06
3.97871113e-06
5.80262855e-06
2.74980844e-06
3.95884368e-06
4.514411e-06
3.46015332e-06
5.21740577e-06
4.88767988e-06
4.78369695e-06
4.91432256e-06
4.62527346e-06
4.70464411e-06
7.83959049e-07
0.000176285631
0.000301709261
0.000435669465
0.000574056679
0.000720185257
0.00087741247
0.00104888717
0.00123773325
0.00144722632
0.00168092378
0.0019426701
0.00223677298
0.00256788215
0.00294126207
0.00336252126
0.00383799914
0.00437429809
0.00497878777
0.00565886165
0.0064225517
0.00727741916
0.00823126056
0.00929057807
0.0104613579
0.0117471875
0.0131500702
0.0146684524
0.0162978696
0.0180293175
0.019848982
0.0217375951
0.0236677628
0.0256056064
0.0275031395
0.0293049978
0.0309318652
0.0322976518
0.0332758869
0.0337389681
0.0334897153
0.0323500523
0.0300100303
0.0262542191
0.0205111187
0.0122668885
0.00250828851
0.000177572794
0.000163342415
0.000139174851
5.38622657e-07
0.000118774042
6.26200535e-06
2.37370929e-07
2.62248505e-09
1.63976076e-05
7.31700329e-05
4.11704014e-05
2.11775903e-05
3.86499227e-06
4.20031743e-07
7.57942753e-06
6.69171717e-06
4.26290341e-06
6.21470519e-06
4.27572769e-06
6.62100529e-06
3.85268451e-06
6.41825792e-06
3.56929022e-06
6.73656331e-06
4.23879468e-06
4.20554168e-06
3.97461287e-06
5.56012536e-06
5.11026462e-06
4.80003484e-06
5.01173044e-06
4.72949931e-06
4.66753861e-06
6.68392418e-07
0.00015795924
0.000284497124
0.000418928726
0.000556459092
0.000700938792
0.000855937138
0.00102475937
0.00121057458
0.00141667425
0.00164664975
0.00190430224
0.00219402062
0.0025203762
0.00288879661
0.00330478955
0.0037749851
0.00430588404
0.00490533184
0.00558064983
0.00634059889
0.00719273367
0.00814588431
0.00920663612
0.0103822964
0.0116766147
0.0130930734
0.0146303385
0.0162853729
0.0180495121
0.0199101911
0.0218489157
0.0238393226
0.0258490264
0.027831018
0.0297326732
0.0314757807
0.0329782135
0.0341156165
0.0347648992
0.0347330987
0.0338462825
0.0318018562
0.0283920599
0.0230098294
0.0155903825
0.00483833121
0.00143771427
9.77136802e-05
2.67968194e-05
0.000213360912
2.06135713e-07
0.0001186924
7.44447756e-05
5.93885977e-05
7.90144693e-06
1.10133363e-09
1.78264565e-09
9.90670501e-06
1.61666241e-07
2.19658291e-06
2.8541695e-06
6.21185326e-06
5.40381911e-06
4.39039293e-06
5.50819397e-06
4.03517781e-06
7.33901453e-06
3.33992262e-06
6.22338293e-06
2.35229778e-06
4.78307095e-06
5.02560524e-06
4.10838125e-06
4.79146911e-06
4.72683464e-06
4.76099976e-06
4.84554093e-06
4.6306012e-06
4.71876966e-06
6.24913174e-07
0.000140390308
0.000267808784
0.000402019439
0.000538134501
0.000680476882
0.000832793737
0.000998537486
0.00118088402
0.00138313787
0.00160889487
0.0018619094
0.00214660835
0.0024674702
0.00283001898
0.00323963087
0.00370311944
0.00422682169
0.00481889621
0.00548648678
0.00623885836
0.00708341065
0.00802974458
0.00908436575
0.0102556813
0.011547487
0.0129646899
0.0145061482
0.0161704721
0.017949344
0.0198319307
0.0218002712
0.0238298639
0.0258893484
0.027933593
0.0299113793
0.0317466577
0.0333584811
0.0346262268
0.0354256483
0.0355739325
0.0348871408
0.0330944367
0.0299485404
0.0249487447
0.0179919931
0.00731192856
0.000829344647
0.000473815033
0.000363536693
0.000253096337
0.000140390818
3.09922302e-05
5.34885758e-05
0.000105411469
0.0001881343
7.47723628e-05
5.23280874e-05
5.35395746e-06
1.06093485e-05
8.2741147e-06
4.32159825e-06
3.81984545e-06
5.59269862e-06
4.53736429e-06
3.68203564e-06
4.66749772e-06
3.92175428e-06
5.81876807e-06
4.39144444e-06
6.39515612e-06
3.1686388e-06
4.890845e-06
5.21098714e-06
4.59669841e-06
4.66169795e-06
4.644342e-06
4.74450139e-06
4.74009212e-06
4.7070689e-06
6.29500916e-07
0.000123403202
0.000251348576
0.000384901499
0.000519366561
0.000659336367
0.000808840509
0.000971381878
0.00115020557
0.00134864949
0.00157029023
0.00181895873
0.00209901237
0.00241508937
0.00277259938
0.00317719335
0.00363552563
0.00415435798
0.00474163854
0.00540511985
0.00615378897
0.00699585874
0.0079405605
0.0089954076
0.0101683367
0.0114643025
0.0128877081
0.0144386709
0.0161155054
0.0179112268
0.0198153853
0.0218113927
0.0238764411
0.0259802576
0.028081724
0.0301298161
0.0320559103
0.0337769256
0.0351844348
0.0361474137
0.0365027688
0.0360489501
0.0345527025
0.031707279
0.027155911
0.0206199101
0.01034739
0.0030518355
0.000399510065
8.97203782e-06
2.51526623e-05
1.53233169e-06
1.67059682e-07
5.33275136e-12
1.20802482e-10
1.69726387e-12
1.11423955e-09
8.02196917e-07
2.53424074e-07
1.11384526e-05
1.03442028e-05
3.2172678e-06
3.45068521e-06
6.00686314e-06
3.18764769e-06
6.61284094e-06
3.84109851e-06
8.436944e-06
3.2639897e-06
5.98741466e-06
3.36402829e-06
5.52520955e-06
5.34496132e-06
5.19171956e-06
4.25164893e-06
4.45137563e-06
4.58816221e-06
4.61207871e-06
4.6555441e-06
4.71518602e-06
6.13213266e-07
0.000107531803
0.000235038175
0.000366926924
0.000498841955
0.00063554294
0.000781194633
0.00093937313
0.001113334
0.001306401
0.00152212067
0.00176430746
0.00203728761
0.0023457054
0.00269496501
0.00309077801
0.00353985328
0.00404910806
0.00462664935
0.00528052566
0.00602003313
0.00685384878
0.00779167574
0.00884162105
0.01001218
0.0113088748
0.012736578
0.0142957324
0.0159848844
0.0177970539
0.0197218885
0.021742693
0.0238370079
0.0259747207
0.0281157905
0.0302099919
0.0321911298
0.0339786244
0.0354679217
0.0365328681
0.0370152411
0.0367208564
0.0354203775
0.0328154044
0.0285815571
0.0223739399
0.0127622992
0.00351957835
0.000809940598
0.000448996253
0.000187001687
0.000135265322
0.00019368456
0.000117714091
0.000215149873
0.000162741259
0.000120176113
7.52124738e-06
6.82464595e-06
6.85319192e-06
5.55840142e-06
3.96189848e-06
5.05831139e-06
4.92795186e-06
4.4711233e-06
3.54960286e-06
5.08645199e-06
3.61067246e-06
5.00114119e-06
5.38687971e-06
6.85065205e-06
3.71756872e-06
5.01687272e-06
5.78642722e-06
4.54839887e-06
4.36117441e-06
4.44616182e-06
4.48990757e-06
4.73532174e-06
4.66566079e-06
5.68634315e-07
9.43632787e-05
0.000222042314
0.000353012574
0.000483392358
0.000617986777
0.000761161389
0.000916509162
0.00108732619
0.00127693145
0.00148883655
0.00172687112
0.00199526476
0.00229872588
0.00264250104
0.00303243819
0.00347502525
0.00397742648
0.00454747147
0.00519363031
0.00592489448
0.00675063048
0.0076802732
0.00872299187
0.00988713852
0.0111797207
0.012605711
0.0141672679
0.0158632087
0.0176881897
0.0196323177
0.0216800396
0.0238097999
0.0259917386
0.0281876704
0.0303461592
0.0324045274
0.0342785198
0.0358703525
0.0370463458
0.0376609509
0.0375056303
0.0363747631
0.0339420995
0.029948616
0.0239671214
0.0150131869
0.00331320432
0.000279429892
2.47689676e-05
0.000190597258
0.000125522199
1.8398301e-09
5.63903961e-05
1.44346814e-07
1.88363444e-05
1.40992393e-06
2.52247967e-06
4.08080559e-05
1.19466868e-05
4.2760933e-06
3.66663823e-06
4.83792498e-06
4.74554833e-06
3.24787406e-06
7.15206319e-06
4.08476106e-06
7.42787565e-06
4.22967776e-06
4.77105526e-06
5.0769347e-06
6.61396819e-06
4.75445991e-06
5.50697998e-06
4.61919296e-06
4.3269929e-06
4.5211072e-06
4.41985512e-06
4.62533206e-06
4.66959421e-06
4.91249689e-07
7.72003152e-05
0.000201648403
0.000329295168
0.000455992853
0.000586304007
0.000724751136
0.000874968085
0.00104033109
0.00122416719
0.00142999995
0.00166171571
0.00192351997
0.00222025873
0.00255712763
0.00294022256
0.00337595046
0.00387186301
0.00443566472
0.00507637779
0.00580279767
0.00662502051
0.00755217849
0.00859434088
0.00975943674
0.0110555144
0.0124870141
0.0140573158
0.0157649466
0.0176059308
0.0195708057
0.0216454886
0.0238101213
0.0260361846
0.0282889879
0.0305178888
0.0326659704
0.0346485526
0.0363763007
0.0377133214
0.038525342
0.0385996446
0.0377458086
0.0356299327
0.0320318138
0.0264344004
0.0182817123
0.00583633974
0.00172203752
0.000431409191
0.00026966186
0.000190984558
0.000202379489
1.50260945e-07
0.000228048293
2.19621392e-05
5.76214573e-05
2.15639288e-06
1.82887423e-06
2.24143256e-06
1.0412777e-05
8.39306766e-06
4.96818525e-06
4.8450496e-06
5.5769379e-06
2.94977876e-06
5.13191268e-06
3.55867873e-06
5.13513845e-06
4.85809494e-06
5.85695777e-06
3.70099942e-06
4.9315959e-06
4.67241292e-06
4.77995678e-06
4.36423239e-06
4.51157013e-06
4.4335526e-06
4.62397705e-06
4.62518931e-06
4.28457643e-07
6.26701935e-05
0.000183258309
0.000307376668
0.000430419485
0.000556479363
0.000690167789
0.000835139396
0.000994815339
0.00117251008
0.00137174603
0.00159641112
0.00185069445
0.00213949302
0.00246799063
0.00284241357
0.003269177
0.00375608329
0.00431088382
0.00494301912
0.00566138158
0.00647669821
0.00739823658
0.00843692048
0.00960078692
0.0108989097
0.0123357208
0.0139156741
0.0156371802
0.0174972802
0.0194864729
0.0215916566
0.0237933873
0.0260642054
0.0283706614
0.0306633775
0.0328877219
0.0349607823
0.0367963609
0.0382615916
0.0392245295
0.0394783963
0.0388287164
0.0369566026
0.0336208449
0.0282852067
0.0204966232
0.00887320084
0.00155703545
0.000336891226
1.0530787e-05
1.03220823e-08
6.93444756e-10