/*--------------------------------*- C++ -*----------------------------------*\
| =========                 |                                                 |
| \\      /  F ield         | OpenFOAM: The Open Source CFD Toolbox           |
|  \\    /   O peration     | Version:  v2006                                 |
|   \\  /    A nd           | Website:  www.openfoam.com                      |
|    \\/     M anipulation  |                                                 |
\*---------------------------------------------------------------------------*/
FoamFile
{
    version     2.0;
    format      ascii;
    class       volScalarField;
    location    "0.0391000018";
    object      nuTilda;
}
// * * * * * * * * * * * * * * * * * * * * * * * * * * * * * * * * * * * * * //

dimensions      [0 2 -1 0 0 0 0];


internalField   nonuniform List<scalar> 
14400
(
8.8060353e-05
0.000458869804
0.000584174501
0.000684778987
0.000777306553
0.000868489196
0.000961412635
0.00105723529
0.00115584578
0.00125639887
0.00135736568
0.00145652471
0.00155092595
0.00163663907
0.00170859542
0.00175993208
0.00178557026
0.00178079424
0.00173981111
0.00165512374
0.00151767995
0.00131631662
0.00103659948
0.000670806256
2.03734222e-05
7.72294925e-06
1.61398781e-06
4.86062079e-06
3.36562415e-06
3.92488962e-07
1.86787908e-06
9.77051796e-07
1.81379074e-06
7.83407327e-06
5.18264123e-05
0.000125251073
0.000139197092
8.45995322e-05
1.77974228e-05
5.76352818e-05
6.63808591e-05
0.000102632363
8.41046354e-05
9.36273355e-05
3.9889587e-05
4.65653214e-05
6.05277806e-05
2.48746417e-05
6.88094727e-06
2.29916612e-05
1.49945606e-05
3.96950137e-06
6.32892868e-06
2.00005444e-05
4.1771185e-05
4.19566896e-05
3.05242385e-05
3.01345687e-05
4.47119307e-05
4.52551224e-05
6.8347679e-05
6.2013662e-05
6.71997949e-05
6.81844397e-05
6.86896109e-05
6.89517902e-05
6.92263538e-05
6.69199742e-05
7.06916513e-05
6.39828041e-05
7.16200125e-05
6.9928063e-05
7.19448892e-05
7.06853324e-05
7.15767513e-05
7.20188947e-05
6.93146404e-05
6.92174294e-05
6.97416481e-05
6.95250035e-05
0.000140389439
0.000764543835
0.000967893615
0.00112387338
0.0012654775
0.00140745974
0.0015604249
0.00173067295
0.00192135901
0.00213359097
0.00236695569
0.00262145678
0.00289685932
0.00319197266
0.00350462564
0.00383342638
0.00417332826
0.0045182988
0.00486109045
0.00519291941
0.00550346637
0.0057804436
0.00601048342
0.00617764891
0.00626385425
0.00625059857
0.00611369448
0.0058281021
0.00537062046
0.0047200822
0.0038580463
0.0027469348
0.00141491059
0.000153733474
3.7940289e-05
1.29581281e-05
7.89773967e-06
0.000113981386
0.000236313903
4.55543027e-05
9.03736313e-05
5.42907876e-05
5.65103566e-05
4.37927161e-05
0.000122849175
0.000104487813
0.000131174672
0.000142901179
0.000183670253
0.000155756631
0.000156114417
0.00017195886
0.000104526055
0.000113790549
0.000145995677
0.000159304788
0.000122883737
0.000104564552
6.9757051e-05
7.80265103e-05
8.36609013e-05
8.48214976e-05
6.88538915e-05
7.29959249e-05
6.77372372e-05
7.13665086e-05
6.84395244e-05
7.33687516e-05
6.99219364e-05
7.4946222e-05
7.08559002e-05
7.35246909e-05
7.01161776e-05
7.0451098e-05
7.23264387e-05
6.2841451e-05
6.80943262e-05
6.98171257e-05
6.88406404e-05
6.97519236e-05
0.000132726106
0.000722191641
0.00091525327
0.00106779025
0.00121254812
0.00136492433
0.00153357698
0.00172368514
0.00193859467
0.00218066031
0.00245170091
0.00275315603
0.00308606086
0.00345101508
0.00384801691
0.00427636563
0.0047344714
0.00521972498
0.00572827384
0.00625480228
0.00679222382
0.00733131109
0.00786028792
0.00836429231
0.00882491043
0.00921953514
0.00952095443
0.00969682031
0.00970956201
0.00951645166
0.00907040844
0.00832227295
0.0072270253
0.00576403713
0.00399909035
0.00191254881
0.000242731046
4.57928438e-05
1.9750459e-05
0.000146735698
4.23670787e-05
4.4575127e-05
3.52795291e-05
7.53084053e-05
3.44869021e-05
8.54850942e-05
7.00653747e-05
1.05575464e-05
2.28551558e-06
1.10480928e-06
2.33011845e-06
7.5317647e-06
8.19298429e-05
9.86392331e-05
5.48698556e-05
3.46962143e-05
6.74348924e-05
6.82286346e-05
8.29699742e-05
8.53603075e-05
6.83788808e-05
5.71753349e-05
7.12989827e-05
6.94238005e-05
6.89690036e-05
6.61668156e-05
6.83588975e-05
6.88838137e-05
6.58072189e-05
6.93395799e-05
6.6961394e-05
6.21714328e-05
6.45808987e-05
6.33147356e-05
5.68472629e-05
6.72302774e-05
7.0857928e-05
6.86423706e-05
6.96545827e-05
6.91766669e-05
0.000122273831
0.00066408377
0.000841957913
0.00098537843
0.00112513308
0.00127539851
0.00144383424
0.00163499886
0.00185207486
0.00209771634
0.00237437451
0.00268446066
0.00303025522
0.0034138722
0.00383703419
0.00430098648
0.00480620759
0.00535230767
0.00593772638
0.00655960551
0.00721346214
0.00789294011
0.00858940614
0.00929145282
0.00998439765
0.0106494533
0.0112632032
0.0117964156
0.0122136518
0.0124718001
0.0125201644
0.0122992862
0.0117427936
0.0107796215
0.00934378504
0.00738707384
0.00493508915
0.00210515575
0.000107989294
5.65991922e-05
0.000107826597
0.000104690554
0.000126851107
4.65009935e-05
0.000112411663
3.24895346e-05
1.7961415e-05
0.000110240742
0.000196624214
0.000189706552
0.000222130054
0.000180609472
0.000113208676
4.03335499e-05
1.99976314e-05
4.01790895e-05
5.64641592e-05
7.05737922e-05
7.16583943e-05
7.05788769e-05
4.48011027e-05
6.65028454e-05
7.01023254e-05
6.94631449e-05
7.30117735e-05
7.1320436e-05
7.25225371e-05
7.06149536e-05
6.48205088e-05
7.30443944e-05
6.24532849e-05
6.60926079e-05
6.82951893e-05
6.70922972e-05
7.49056289e-05
7.74259122e-05
6.95915788e-05
6.97357728e-05
6.88907451e-05
6.89215633e-05
0.000112440428
0.000609428133
0.000773038791
0.000908016642
0.00104302135
0.00119069528
0.00135743218
0.00154710875
0.00176260125
0.00200663184
0.00228194972
0.00259148125
0.00293822749
0.00332523682
0.00375537924
0.00423126852
0.00475495506
0.00532780901
0.00595016725
0.00662120648
0.00733857559
0.00809822232
0.00889398891
0.00971726383
0.0105564636
0.0113963519
0.0122173898
0.0129946239
0.0136969983
0.0142857781
0.0147140171
0.0149246443
0.0148506109
0.0144136791
0.0135273207
0.0121011954
0.0100552787
0.00735298241
0.00421446904
6.64018986e-06
1.58721155e-06
6.24615595e-05
3.30409731e-05
0.000104691254
4.74588683e-05
0.000124103557
0.000114890063
2.60034286e-05
2.78216864e-06
2.89124367e-06
3.16754678e-06
3.81643126e-06
3.566186e-05
0.000112479732
0.000156388721
0.000166834957
0.000101697415
8.91904858e-05
6.67425021e-05
5.7133947e-05
7.88186285e-05
7.18230444e-05
7.0743424e-05
6.79755097e-05
7.52944686e-05
6.84986542e-05
7.10429295e-05
6.27803355e-05
7.49295706e-05
6.76339328e-05
7.2076554e-05
7.71637737e-05
6.38505749e-05
7.75930906e-05
7.75379031e-05
6.63563101e-05
6.98958067e-05
6.94604144e-05
6.95321915e-05
6.98589907e-05
0.000103741281
0.000561040095
0.000712105562
0.000840075321
0.000971361747
0.00111687812
0.00128185031
0.00146949508
0.00168245236
0.00192342304
0.00219536272
0.00250150213
0.00284532356
0.00323047212
0.00366064637
0.00413943776
0.00467014537
0.00525554422
0.00589763114
0.0065973479
0.00735429328
0.00816643315
0.00902978371
0.00993806865
0.0108822724
0.0118501118
0.0128253173
0.0137868029
0.01470762
0.0155538169
0.0162831126
0.0168435264
0.0171719437
0.0171929183
0.0168179172
0.0159463734
0.0144692166
0.0122824091
0.00931820985
0.00559470219
0.00104274737
4.06307886e-06
9.05326356e-05
5.27127056e-05
7.04257737e-05
6.94984462e-05
0.000107786962
0.000136908666
0.000250872789
0.000267862669
0.000248334298
0.000231817394
0.000167779187
6.33957095e-05
1.09863158e-05
2.2152116e-06
3.26709072e-06
2.44754596e-05
5.83391981e-05
7.64376695e-05
6.30526083e-05
7.43409807e-05
6.74751595e-05
6.82166668e-05
6.37109648e-05
7.12978833e-05
6.53803267e-05
7.25065523e-05
6.89574764e-05
6.40917389e-05
7.88917925e-05
6.68454386e-05
7.76167584e-05
6.99782879e-05
5.93675272e-05
6.8183382e-05
6.73701994e-05
6.96309486e-05
6.95722764e-05
6.94893918e-05
9.64493685e-05
0.000520428993
0.000661059096
0.000783731839
0.000912611362
0.00105678901
0.00122043855
0.00140617561
0.00161647123
0.00185398544
0.00212178099
0.00242324912
0.00276215746
0.00314249528
0.00356850017
0.0040444027
0.00457441745
0.00516235883
0.0058115954
0.00652454114
0.00730257462
0.00814546876
0.00905128929
0.0100158146
0.0110323248
0.0120909824
0.013178274
0.0142762805
0.0153615154
0.0164041117
0.0173659065
0.0181996946
0.0188465423
0.0192353079
0.0192795095
0.018877783
0.0179122726
0.0162529396
0.013766438
0.0103278433
0.00567076622
0.000415334911
7.51203819e-05
6.61095036e-05
4.68093506e-05
6.34227201e-05
5.26275379e-05
7.04097814e-06
1.86226918e-06
2.80500226e-06
4.19804337e-06
4.31074946e-06
3.4817083e-05
3.89893684e-05
0.000115907835
0.000158274515
0.000117972125
8.7538454e-05
9.40940279e-05
7.24244785e-05
7.09724669e-05
6.18494134e-05
6.5500439e-05
6.7187428e-05
6.64137121e-05
7.24977878e-05
6.80934782e-05
7.02115549e-05
6.62021481e-05
7.0927097e-05
5.85925976e-05
6.79535936e-05
6.97272851e-05
6.22365498e-05
6.45954829e-05
7.15426547e-05
6.9607266e-05
6.94762113e-05
7.00722421e-05
6.95936281e-05
9.08136031e-05
0.0004888768
0.000621560675
0.000741164559
0.000869434764
0.00101380587
0.00117743152
0.00136255399
0.00157144695
0.00180680046
0.00207165784
0.00236954858
0.0027043003
0.00308017091
0.00350157867
0.00397324774
0.00449980817
0.00508593849
0.00573579043
0.00645310989
0.00724050176
0.00809952975
0.0090298921
0.0100294856
0.0110935819
0.0122147146
0.0133818791
0.014579919
0.0157887537
0.0169818661
0.0181257136
0.0191769539
0.0200824654
0.0207749077
0.0211739051
0.0211798803
0.0206774121
0.0195290289
0.0175836225
0.0146768094
0.0106319618
0.00530507723
5.12028539e-05
7.30514017e-07
5.70867123e-05
3.44881583e-05
9.62305171e-05
0.000116474755
0.000269669906
0.000285649576
0.000289377775
0.000222295256
7.47324291e-05
4.52590643e-05
7.62761643e-05
5.58342944e-05
0.000108561867
8.06053839e-05
9.34554053e-05
5.14613914e-05
4.78139785e-05
6.59387966e-05
7.2156071e-05
6.43197154e-05
6.81407092e-05
6.36677578e-05
7.06116365e-05
6.53917862e-05
6.77098676e-05
7.40886627e-05
6.58481555e-05
6.15944778e-05
6.47955258e-05
6.85379677e-05
7.90301492e-05
7.52564835e-05
7.13802662e-05
6.84810117e-05
6.94110656e-05
6.92069467e-05
8.59874914e-05
0.000461774422
0.000588138884
0.000706120004
0.000834971663
0.000980394411
0.0011448153
0.00133012271
0.00153856621
0.00177277612
0.00203587147
0.00233135505
0.00266319001
0.00303561576
0.00345327522
0.00392094886
0.00444366916
0.00502633309
0.00567378782
0.00639028511
0.00717952067
0.00804395233
0.00898478913
0.010001248
0.011090462
0.0122467472
0.0134612697
0.0147213143
0.016009392
0.0173024679
0.018570167
0.019774032
0.0208645545
0.0217806929
0.02244551
0.0227663114
0.0226289775
0.0218999289
0.0204208376
0.0180171875
0.0145010406
0.00970811512
0.00265912504
0.000236991008
1.69688959e-05
6.48663871e-05
4.9999822e-06
1.95813922e-05
3.7525424e-07
5.59191134e-07
8.69273289e-06
1.14874108e-05
7.2727269e-05
0.000163793613
8.16828776e-05
4.64322097e-05
7.50681214e-05
0.000104183116
5.33524845e-05
7.06063485e-05
8.85814603e-05
8.22514149e-05
7.00856598e-05
7.51478805e-05
7.10394812e-05
7.30117825e-05
6.88689193e-05
7.11965112e-05
6.94044223e-05
6.37273079e-05
7.45632462e-05
7.73954662e-05
7.14449655e-05
7.26286783e-05
7.37550777e-05
6.82362706e-05
6.89897353e-05
6.96573536e-05
6.90397284e-05
6.92302825e-05
8.11816613e-05
0.000434805146
0.000555436667
0.000672298518
0.000801851664
0.000948253689
0.00111329656
0.00129874661
0.00150680158
0.00174016421
0.0020019997
0.00229592486
0.00262592721
0.00299641926
0.00341210079
0.00387801076
0.00439931909
0.00498133695
0.00562919483
0.00634779104
0.00714133438
0.00801322491
0.00896548762
0.00999860019
0.0111108775
0.0122982193
0.0135534607
0.0148658778
0.016220424
0.0175966954
0.0189679728
0.0202993505
0.0215466185
0.0226533084
0.0235495714
0.0241478782
0.0243422718
0.0240027118
0.0229763237
0.0210818951
0.018119306
0.0138597526
0.00787653989
0.00122739999
0.000209683621
9.76983287e-05
0.000113745546
6.79806152e-05
0.000284671831
0.000279904162
0.00022846461
0.000158278643
9.80001157e-05
3.36330701e-05
0.00010860508
0.000152624369
0.000111650646
0.000105482292
6.18156106e-05
7.54659466e-05
8.80521038e-05
6.45504757e-05
8.31871691e-05
6.66012126e-05
7.99467645e-05
6.52212222e-05
7.84133543e-05
6.83539405e-05
8.21672628e-05
7.12990015e-05
7.43325788e-05
8.01434663e-05
7.4145404e-05
7.87958952e-05
6.61651956e-05
6.74863963e-05
6.93994241e-05
6.9880247e-05
6.93782354e-05
6.89617965e-05
7.60400978e-05
0.000406098661
0.000520739888
0.000636106981
0.000765397928
0.000911450894
0.00107560911
0.00125955451
0.00146552176
0.00169627588
0.001955068
0.0022455707
0.00257190913
0.0029385718
0.00335046717
0.00381278034
0.00433100568
0.00491071263
0.00555752348
0.00627674473
0.00707326919
0.00795106952
0.00891302823
0.00996034437
0.0110923139
0.0123057158
0.0135944908
0.014949089
0.016355832
0.0177961022
0.0192450884
0.0206707229
0.0220315725
0.0232755579
0.0243367622
0.0251340167
0.0255664115
0.0255120191
0.0248224265
0.0233233717
0.0208116271
0.0170642833
0.011839462
0.00393367563
0.000470971061
0.000112194649
0.000134281438
9.77036709e-05
7.53417987e-06
6.30876909e-05
0.000156777022
0.000138780851
0.000107999325
0.000100807417
4.38680945e-05
5.64198243e-05
7.68345688e-05
9.58312845e-05
0.000112007398
9.45074478e-05
6.36692214e-05
6.51968827e-05
6.21051423e-05
7.36145673e-05
6.93836886e-05
7.05332099e-05
6.66573156e-05
7.73428742e-05
6.70412765e-05
7.84970583e-05
7.01706727e-05
5.822091e-05
7.14591688e-05
6.9317823e-05
6.58753711e-05
6.98836739e-05
6.9637091e-05
7.02250459e-05
6.958137e-05
6.95027306e-05
7.15551159e-05
0.00038097081
0.000490765188
0.000605292552
0.000734534595
0.000880139085
0.00104316366
0.00122527656
0.00142875459
0.00165639715
0.00191148505
0.0021977437
0.00251932602
0.00288081962
0.00328720876
0.00374386587
0.0042564729
0.00483095296
0.00547329803
0.00618941054
0.00698480004
0.0078643161
0.00883171133
0.00988929445
0.0110374072
0.0122740479
0.0135942957
0.0149898662
0.0164483781
0.0179526482
0.0194795626
0.0209989272
0.0224717227
0.0238484927
0.0250667646
0.0260491582
0.0266995741
0.0269014911
0.0265123334
0.0253641614
0.0232558092
0.019964423
0.0152167324
0.00830357279
0.000580236903
6.88847293e-05
3.65178156e-05
3.61921795e-05
0.000286952072
0.000180197699
4.0374764e-05
8.68036403e-05
1.35661074e-05
1.40762869e-05
3.40600726e-05
4.98727625e-05
5.03602914e-06
5.8118778e-06
7.99345811e-05
7.26475685e-05
6.58990397e-05
7.48150634e-05
6.85697802e-05
7.22672993e-05
6.61683167e-05
6.98932429e-05
7.06573332e-05
6.73905593e-05
7.44716968e-05
5.70894445e-05
7.14444285e-05
8.38654908e-05
6.69029701e-05
6.61681981e-05
6.96696332e-05
6.92012742e-05
7.04598837e-05
7.0039889e-05
6.9693305e-05
6.94470277e-05
6.78667892e-05
0.000360235063
0.000466684486
0.000581424037
0.000711350018
0.000857148797
0.00101978715
0.00120089583
0.00140282473
0.00162836221
0.00188087213
0.0021640183
0.00248206428
0.00283950972
0.00324151536
0.00369338245
0.00420109721
0.00477058163
0.00540834777
0.00612044807
0.00691322678
0.00779192368
0.00876149871
0.00982493636
0.0109841008
0.0122379253
0.0135831525
0.0150126754
0.0165157548
0.0180767781
0.0196742142
0.0212801479
0.0228570674
0.0243588263
0.0257243057
0.026880743
0.027733101
0.0281711162
0.0280529375
0.0272180477
0.0254639057
0.0225713512
0.0182561351
0.0121674838
0.00335983875
0.000446148538
6.77044898e-05
6.25156665e-05
3.34023446e-05
0.000294432043
0.00028063645
0.000137037333
0.000142072665
0.000135835454
0.000192302935
0.00022779905
0.00010407138
5.33312068e-05
2.79808602e-05
4.23051267e-05
5.66785605e-05
7.70308404e-05
6.30659321e-05
6.89709604e-05
6.06052549e-05
7.31781355e-05
6.31562e-05
7.18631484e-05
6.27263293e-05
7.86193169e-05
6.50992567e-05
5.26480785e-05
6.73068459e-05
6.1770069e-05
7.43196487e-05
6.78901163e-05
6.89085915e-05
6.90911914e-05
6.98233565e-05
6.96875827e-05
6.42064241e-05
0.000339650242
0.000443105037
0.000558000414
0.000688152611
0.000833637095
0.000995355472
0.001175008
0.0013749773
0.00159811023
0.00184774642
0.00212761274
0.00244191509
0.0027952371
0.00319266596
0.00363963995
0.00414208309
0.00470614872
0.0053383391
0.00604509839
0.0068328802
0.00770755078
0.00867438284
0.00973727917
0.0108986994
0.0121587826
0.0135152113
0.0149623107
0.0164907353
0.0180864903
0.0197301552
0.0213956327
0.0230486485
0.0246450007
0.0261283798
0.0274277283
0.0284549416
0.0291003175
0.0292317071
0.0286859411
0.0272733881
0.0247622305
0.0208899259
0.0153420497
0.00681813809
0.00166739177
0.000213250162
0.000135039646
0.000258506653
7.62785145e-05
9.40604355e-05
0.000157546579
9.0795768e-05
7.78527199e-05
5.60168774e-05
0.000106559526
7.13160376e-05
6.49025338e-05
2.3465899e-05
6.06460604e-05
8.78968098e-05
6.78291007e-05
6.09388128e-05
7.21715458e-05
6.47807178e-05
6.98542121e-05
6.47748122e-05
6.91577841e-05
6.23110885e-05
6.43140054e-05
7.27619382e-05
7.15122353e-05
6.9460313e-05
6.9111424e-05
6.8810845e-05
6.58743685e-05
6.86845688e-05
6.87102979e-05
6.8960986e-05
6.95436635e-05
6.07318229e-05
0.000320154347
0.000421161174
0.000536156608
0.000666169688
0.000810957126
0.000971394116
0.00114930529
0.00134708215
0.00156766532
0.00181438092
0.00209103888
0.00240181544
0.0027514191
0.00314491127
0.00358792908
0.00408639294
0.00464676987
0.00527561225
0.00597983461
0.00676602328
0.00764070114
0.00860937588
0.00967678155
0.0108457192
0.0121172679
0.0134895774
0.0149579386
0.0165137243
0.0181439013
0.0198303274
0.0215478771
0.023264597
0.0249371839
0.0265132952
0.0279223003
0.0290824443
0.0298829077
0.0302013665
0.0298688897
0.0287119366
0.0264795107
0.0229490497
0.01774805
0.0101975785
0.00105900925
0.00011431712
3.28812141e-05
0.000149082003
9.21971206e-05
5.08201214e-05
8.0695846e-06
2.80017768e-06
6.51358165e-05
5.19315564e-05
4.0091165e-06
7.87918308e-06
4.32678904e-06
3.55315914e-05
6.45306289e-05
5.03944458e-05
6.26514405e-05
7.53436637e-05
6.70001759e-05
6.87356052e-05
7.07703994e-05
7.19321773e-05
6.6367934e-05
7.36096393e-05
6.5295639e-05
6.44251366e-05
7.44203941e-05
7.14009112e-05
7.30329108e-05
6.61493554e-05
6.8891813e-05
6.86442591e-05
6.81512528e-05
6.92143537e-05
6.94001544e-05
5.74044527e-05
0.000301437966
0.000400451614
0.000515133578
0.000644361537
0.000787693328
0.000946028244
0.00112133699
0.00131592852
0.00153290862
0.00177541447
0.00204748574
0.00235303381
0.00269709412
0.00308439452
0.00352106545
0.00401263737
0.00456632259
0.00518825459
0.00588644496
0.00666708189
0.00753821967
0.00850505111
0.00957426883
0.0107484895
0.0120310081
0.0134199848
0.0149128492
0.0165014009
0.0181742984
0.0199147959
0.0216987331
0.0234973567
0.0252672767
0.0269621563
0.0285097879
0.0298382637
0.0308332534
0.0313869346
0.0313247838
0.0304924076
0.0286288497
0.0255386002
0.0207945585
0.0141219792
0.00402222441
0.000931933046
0.000393251571
0.000170244167
0.000388539567
0.000353680951
0.000225543237
0.000173854645
9.7818027e-05
0.000153403397
0.000250629844
0.000175401275
0.000192219119
8.0130226e-05
6.74036582e-05
7.17338012e-05
6.90381677e-05
7.10715061e-05
6.78350895e-05
7.2409882e-05
6.74261968e-05
6.55071902e-05
6.50511073e-05
6.52188813e-05
7.29290054e-05
7.02693507e-05
6.20445733e-05
6.95513854e-05
7.28058162e-05
6.53508384e-05
6.9653338e-05
6.94238627e-05
6.90905574e-05
6.91414978e-05
6.92517531e-05
5.47065199e-05
0.000286189796
0.000384425279
0.000499632301
0.000628741174
0.000771426025
0.000928633433
0.00110239679
0.00129505629
0.00150973812
0.00174956561
0.00201858017
0.00232065404
0.00266083543
0.00304380046
0.00347571976
0.00396207908
0.00451019271
0.00512618268
0.00581827913
0.00659273559
0.00745801548
0.00841949861
0.00948455301
0.0106561315
0.0119384873
0.013330229
0.0148299774
0.016430011
0.0181203803
0.0198847842
0.021700713
0.0235398388
0.0253609906
0.0271180906
0.0287423586
0.0301613524
0.0312668717
0.0319479504
0.0320422883
0.0313840978
0.0297387721
0.0268705477
0.0224077161
0.0161562316
0.00592959102
0.000539606467
8.32022712e-05
4.01453931e-06
3.38331541e-06
7.02505014e-06
0.000132822149
1.33376746e-05
5.23553024e-06
1.80556832e-05
1.42792427e-06
7.70705533e-05
8.53828525e-05
0.000103826863
8.84759291e-05
9.06316311e-05
6.71934368e-05
7.01561025e-05
6.71611893e-05
7.70163893e-05
6.54716714e-05
7.6775354e-05
6.45709695e-05
7.64489235e-05
6.4923444e-05
7.50524881e-05
7.92625473e-05
6.70666889e-05
7.09869926e-05
7.05631828e-05
7.09774694e-05
6.98118366e-05
6.97413849e-05
6.94324727e-05
6.92194032e-05
5.18275946e-05
0.000269901482
0.000367203618
0.000481904918
0.000609890426
0.000750831736
0.000905851056
0.00107699432
0.00126669666
0.00147801043
0.00171416172
0.00197907436
0.00227676725
0.00261213093
0.00299006813
0.00341656254
0.00389744975
0.00443984273
0.00505040012
0.00573716904
0.00650719948
0.00736884583
0.00832861162
0.00939390108
0.010569121
0.0118587884
0.013263182
0.0147815197
0.0164077381
0.0181330488
0.0199425539
0.0218159898
0.0237258899
0.0256351917
0.0274975683
0.0292512483
0.0308212728
0.0321108547
0.0330020592
0.0333514022
0.0329763358
0.0316773453
0.0291727353
0.0252041658
0.0194402982
0.0101958642
0.00327788071
0.000644807041
0.000367211574
0.000400872906
0.000414854026
0.000129560567
0.000207411373
0.00021605497
0.000211847985
0.00022894073
0.000155267844
8.6758744e-05
5.74409165e-05
8.76269521e-05
8.01706503e-05
8.19749551e-05
7.11277275e-05
6.6606467e-05
7.37857844e-05
6.83882022e-05
6.99678096e-05
7.1902322e-05
6.64138912e-05
7.34159907e-05
6.02572702e-05
6.66614433e-05
6.8418018e-05
6.43302294e-05
7.14040582e-05
7.02911634e-05
6.99421859e-05
7.02221042e-05
6.93163202e-05
6.94149591e-05
4.97285456e-05
0.000255608872
0.000352739072
0.000467091939
0.000594029311
0.000733394432
0.000886471283
0.0010552582
0.00124231874
0.00145056792
0.00168339708
0.00194450905
0.00223815687
0.0025689231
0.00294205367
0.00336312093
0.00383845852
0.00437464781
0.0049790573
0.00565906772
0.00642271151
0.00727754195
0.00823135649
0.00929065224
0.0104614164
0.0117472331
0.0131501066
0.0146684811
0.0162978929
0.0180293362
0.0198489974
0.0217376077
0.0236677735
0.0256056152
0.0275031472
0.0293050043
0.0309318712
0.032297657
0.0332758918
0.0337389728
0.03348972
0.0323500571
0.0300100359
0.0262542261
0.02051113
0.0122669189
0.00250900811
0.000237097925
0.000226651373
0.000208144176
3.96203879e-05
0.000192848904
7.45455471e-05
3.21639822e-05
1.04333512e-05
9.69810082e-05
0.00015767229
0.000128447701
0.000104783143
6.55822799e-05
3.72847028e-05
7.85132009e-05
7.60103964e-05
6.74696446e-05
7.45370198e-05
6.76320205e-05
7.58352446e-05
6.5901326e-05
7.52350802e-05
6.47226693e-05
7.62870192e-05
6.77712493e-05
6.75558216e-05
6.66380233e-05
7.27554227e-05
7.10508428e-05
7.01025538e-05
7.06561637e-05
6.96759002e-05
6.93421274e-05
4.77214471e-05
0.000241692675
0.000338649358
0.000452098776
0.000577455751
0.000714761122
0.000865406385
0.00103139292
0.00121535395
0.00142014179
0.00164922295
0.00190620507
0.00219545827
0.00252145033
0.00288961769
0.00330540648
0.00377546072
0.0043062426
0.00490561026
0.00558086029
0.00634076349
0.00719285849
0.00814598275
0.00920671112
0.0103823562
0.0116766606
0.0130931104
0.0146303672
0.0162853964
0.0180495305
0.0199102065
0.021848928
0.0238393332
0.0258490351
0.0278310256
0.0297326796
0.0314757865
0.0329782185
0.0341156213
0.0347649035
0.0347331031
0.0338462869
0.0318018613
0.0283920658
0.0230098386
0.0155904014
0.00483852581
0.00143986179
0.000177175389
0.000111964809
0.000265131775
3.10296462e-05
0.000193149284
0.000158414442
0.000145939552
7.92377981e-05
8.39975371e-06
9.47155384e-06
8.43453726e-05
2.92874537e-05
5.66503147e-05
6.07493985e-05
7.43431349e-05
7.18991663e-05
6.78082989e-05
7.23683088e-05
6.63864469e-05
7.8210145e-05
6.33040616e-05
7.49004528e-05
5.79699673e-05
6.9842462e-05
7.05109171e-05
6.73501554e-05
6.99704675e-05
6.96984929e-05
6.99923876e-05
7.00664552e-05
6.94069022e-05
6.95544009e-05
4.67524623e-05
0.000227889212
0.000324768128
0.000436795746
0.000560077512
0.000694866472
0.000842641136
0.00100541194
0.00118584003
0.00138671948
0.0016115579
0.00186386924
0.0021480937
0.00246857347
0.00283086593
0.00324026274
0.00370360917
0.00422718783
0.00481918232
0.00548670099
0.00623902712
0.00708353723
0.00802984522
0.0090844415
0.0102557422
0.0115475331
0.0129647274
0.0145061769
0.0161704959
0.0179493624
0.0198319462
0.0218002834
0.0238298745
0.0258893569
0.0279336005
0.0299113855
0.0317466633
0.0333584859
0.0346262314
0.0354256525
0.0355739367
0.0348871448
0.0330944414
0.0299485458
0.0249487525
0.0179920071
0.00731201369
0.000835614113
0.00049167179
0.000390558638
0.000296514712
0.00020878095
0.000117137766
0.00014003069
0.000182595441
0.000245047072
0.000158537592
0.000139204991
7.13135807e-05
8.59320458e-05
8.01282612e-05
6.76683898e-05
6.52881333e-05
7.25860025e-05
6.83596185e-05
6.51729199e-05
6.89334069e-05
6.64139589e-05
7.32177053e-05
6.84440081e-05
7.53111418e-05
6.27517579e-05
7.06444766e-05
7.13703361e-05
6.93140065e-05
6.93863428e-05
6.95787474e-05
6.97892359e-05
6.98037041e-05
6.95836068e-05
4.67231659e-05
0.000214593476
0.000311377616
0.00042157659
0.000542436746
0.000674449973
0.000819142387
0.000978578606
0.00115536886
0.00135238967
0.00157305398
0.00182100066
0.00210054787
0.0024162361
0.00277347127
0.00317784837
0.0036360275
0.0041547364
0.0047419303
0.0054053405
0.00615396015
0.00699598865
0.00794066202
0.00899548503
0.0101683978
0.0114643495
0.0128877455
0.0144387
0.016115529
0.0179112454
0.0198154007
0.021811405
0.0238764514
0.0259802661
0.0280817313
0.0301298223
0.0320559158
0.0337769304
0.0351844392
0.0361474177
0.0365027728
0.036048954
0.0345527067
0.0317072838
0.0271559175
0.0206199209
0.0103474321
0.00305231035
0.000422815818
8.17461157e-05
0.000109521347
5.14423041e-05
2.93312724e-05
2.20646764e-06
4.80753516e-06
1.65882752e-06
8.3840063e-06
4.37198309e-05
3.26281845e-05
8.70283179e-05
8.50924836e-05
6.2546762e-05
6.35388933e-05
7.38581141e-05
6.22784798e-05
7.59579115e-05
6.55019798e-05
8.12571985e-05
6.28972217e-05
7.41847879e-05
6.35600845e-05
7.26454574e-05
7.19171593e-05
7.16916162e-05
6.79595005e-05
6.86008619e-05
6.94374748e-05
6.92702e-05
6.95675032e-05
6.96144158e-05
4.61687119e-05
0.000201492805
0.000297827709
0.000405416991
0.000523044165
0.000651385088
0.000791979725
0.000946902791
0.00111872932
0.00131030782
0.00152500346
0.00176643682
0.00203888608
0.00234689889
0.00269587049
0.00309145806
0.00354037293
0.00404949969
0.00462695031
0.00528075309
0.00602020889
0.00685398203
0.00779177939
0.00884170002
0.010012242
0.0113089223
0.0127366157
0.0142957617
0.015984908
0.0177970725
0.0197219038
0.0217427052
0.0238370182
0.0259747291
0.0281157977
0.030209998
0.0321911351
0.033978629
0.035467926
0.036532872
0.0370152449
0.0367208601
0.0354203815
0.0328154088
0.028581563
0.022373949
0.0127623268
0.00351993313
0.000816411354
0.000468240039
0.000243412913
0.000204710389
0.000248585966
0.000191552141
0.000265346295
0.000225516744
0.000193011357
7.79707197e-05
7.57090221e-05
7.61797855e-05
7.17783698e-05
6.60709004e-05
7.01008236e-05
7.01355261e-05
6.79604499e-05
6.4513635e-05
7.04469353e-05
6.49087634e-05
7.03283319e-05
7.218572e-05
7.67218166e-05
6.55084279e-05
7.1198068e-05
7.314979e-05
6.9342634e-05
6.8278476e-05
6.88278052e-05
6.8884454e-05
6.9863115e-05
6.95027714e-05
4.52060354e-05
0.000190747709
0.000287452567
0.000393257778
0.000508671264
0.0006345293
0.000772391793
0.000924354934
0.00109292755
0.00128099544
0.00149182125
0.00172908302
0.0019969154
0.00229996404
0.00264343364
0.00303314281
0.00347555905
0.00397783175
0.00454777978
0.00519386533
0.00592507399
0.00675076794
0.00768037872
0.00872307316
0.00988720136
0.0111797695
0.0126057491
0.0141672979
0.0158632324
0.0176882086
0.0196323329
0.0216800519
0.0238098101
0.025991747
0.0281876775
0.0303461653
0.0324045326
0.0342785244
0.0358703566
0.0370463496
0.0376609545
0.0375056339
0.0363747668
0.0339421038
0.0299486212
0.0239671294
0.0150132066
0.00331360582
0.000317115802
0.000109053715
0.000245837261
0.000197517783
9.4382524e-06
0.000142557585
2.81409132e-05
0.000100723936
5.00703131e-05
5.85910229e-05
0.000127133446
8.8737548e-05
6.68399571e-05
6.47316777e-05
6.91594737e-05
6.93985881e-05
6.24351103e-05
7.75107542e-05
6.64655468e-05
7.84512448e-05
6.7364421e-05
6.98547394e-05
7.09954268e-05
7.62190437e-05
6.99451269e-05
7.28491291e-05
6.95454681e-05
6.81928747e-05
6.92280184e-05
6.86456365e-05
6.95076913e-05
6.95052025e-05
4.32077039e-05
0.000175397144
0.000270607499
0.000372216256
0.000482993589
0.000603972197
0.000736703355
0.000883313206
0.00104625785
0.00122846831
0.00143313778
0.00166404416
0.0019252434
0.0022215547
0.00255809427
0.00294095561
0.00337649952
0.00387228194
0.00443597933
0.00507661914
0.00580297939
0.00662516076
0.00755228447
0.0085944233
0.00975949937
0.0110555636
0.0124870518
0.0140573458
0.0157649699
0.0176059497
0.0195708205
0.0216455009
0.0238101311
0.026036193
0.0282889947
0.0305178948
0.0326659754
0.0346485571
0.0363763046
0.0377133251
0.0385253454
0.038599648
0.037745812
0.0356299366
0.0320318183
0.026434407
0.0182817254
0.00583646795
0.00172345418
0.000451724478
0.000308459187
0.000246433458
0.000254436216
2.84808286e-05
0.000274675655
0.000104990287
0.000142449583
5.60316287e-05
5.33931851e-05
5.66619632e-05
8.46628702e-05
8.03847002e-05
6.95950432e-05
6.95790638e-05
7.20154236e-05
6.12761293e-05
7.06858081e-05
6.45585893e-05
7.1001105e-05
7.02353222e-05
7.37509458e-05
6.54958482e-05
7.08282635e-05
6.9206357e-05
7.04022134e-05
6.83366947e-05
6.91651828e-05
6.87231842e-05
6.95065822e-05
6.941973e-05
4.14355057e-05
0.000161633419
0.000255564854
0.000353038459
0.000459255118
0.000575363058
0.000702920587
0.000844036613
0.0010011148
0.00117707858
0.00137506571
0.00159887373
0.00185250836
0.00214085713
0.00246900224
0.0028431811
0.00326974801
0.00375651937
0.00431120879
0.00494326876
0.00566156791
0.00647684227
0.0073983444
0.00843700453
0.00960085014
0.0108989595
0.0123357585
0.0139157043
0.0156372033
0.0174972991
0.0194864875
0.0215916688
0.0237933969
0.0260642137
0.028370668
0.0306633833
0.0328877267
0.0349607867
0.0367963646
0.0382615951
0.0392245327
0.0394783995
0.0388287195
0.0369566061
0.0336208489
0.0282852124
0.0204966335
0.00887325574
0.00155873983
0.000366256678
8.40773308e-05