/*--------------------------------*- C++ -*----------------------------------*\
| =========                 |                                                 |
| \\      /  F ield         | OpenFOAM: The Open Source CFD Toolbox           |
|  \\    /   O peration     | Version:  v2006                                 |
|   \\  /    A nd           | Website:  www.openfoam.com                      |
|    \\/     M anipulation  |                                                 |
\*---------------------------------------------------------------------------*/
FoamFile
{
    version     2.0;
    format      ascii;
    class       volScalarField;
    location    "0.0391000018";
    object      p;
}
// * * * * * * * * * * * * * * * * * * * * * * * * * * * * * * * * * * * * * //

dimensions      [1 -1 -2 0 0 0 0];


internalField   nonuniform List<scalar> 
14400
(
68593.9222
68592.9038
68598.1393
68587.4889
68604.6801
68580.7474
68611.9907
68573.5294
68619.4874
68566.3185
68626.7631
68559.4492
68633.5036
68553.162
68639.4563
68547.6116
68644.3547
68542.8839
68648.0795
68539.0958
68650.5688
68536.2751
68651.7857
68534.3991
68651.6613
68533.5457
68650.9144
68532.77
68649.8283
68531.6209
68648.229
68529.926
68645.9186
68527.5509
68642.8454
68524.4832
68638.883
68520.5632
68633.7575
68515.6567
68627.0827
68509.5713
68618.5004
68502.0255
68607.6262
68492.8032
68593.7468
68481.2446
68575.5269
68467.0502
68552.5156
68449.5353
68523.2378
68428.303
68487.208
68402.5162
68442.876
68374.737
68388.9374
68351.5696
68340.9563
68346.0939
68336.1751
68285.4149
68288.4494
68243.0879
68231.5983
68169.9546
68100.2339
68081.8317
68048.6257
68031.2228
68008.4719
68016.737
68070.056
68036.927
68057.0623
68036.6466
68064.5182
68045.6077
68216.8071
68215.8677
68219.6854
68211.9694
68224.2262
68207.3073
68229.2177
68202.3733
68234.3961
68197.3682
68239.6414
68192.4194
68244.8551
68187.6346
68249.9596
68183.0998
68254.8684
68178.911
68259.5228
68175.1466
68263.8535
68171.8699
68267.7878
68169.1221
68271.2182
68167.0004
68274.4676
68165.1941
68276.7202
68163.685
68278.0254
68162.7313
68278.6807
68162.8892
68278.8165
68163.2373
68278.5534
68163.5891
68278.1093
68163.8946
68277.3186
68164.1569
68276.5311
68163.89
68275.0715
68163.2898
68272.9668
68162.6417
68269.5758
68160.7099
68264.5986
68159.2609
68257.8592
68160.4289
68250.0412
68166.7773
68243.7315
68177.5554
68242.9032
68179.7544
68223.8108
68153.0524
68180.3669
68180.0944
68152.5612
68148.9657
68155.039
68123.5939
68145.2918
68132.0382
68084.3896
68109.1147
68091.3763
68092.8101
68037.7747
68044.6394
68011.2472
68061.7079
68007.2309
67984.227
68249.6089
68249.4314
68250.2548
68248.5719
68251.2534
68247.5334
68252.3736
68246.4227
68253.5599
68245.2888
68254.7763
68244.1719
68255.9872
68243.1137
68257.1532
68242.1604
68258.2491
68241.364
68259.2399
68240.7797
68260.1022
68240.4714
68260.811
68240.4875
68261.3372
68240.873
68261.6615
68241.6332
68261.7618
68242.6997
68261.5807
68243.9094
68261.1713
68245.0637
68260.6598
68245.8232
68260.5053
68246.8567
68260.4831
68247.9427
68260.4272
68249.4724
68260.4331
68251.536
68260.3907
68254.4226
68260.596
68258.4438
68261.1537
68263.4282
68262.9781
68269.0072
68267.2063
68273.8798
68275.827
68273.9249
68291.1684
68265.594
68311.6682
68248.105
68333.1886
68212.0904
68293.5497
68194.2183
68215.5658
68186.2711
68156.2755
68182.2208
68134.2586
68171.0142
68036.7774
68089.8187
68041.742
68081.2153
68098.4227
68096.4356
68069.2495
68053.6599
68089.401
68071.194
68482.9544
68482.6174
68483.9755
68481.1741
68485.6221
68479.4131
68487.4969
68477.4797
68489.5179
68475.4387
68491.6356
68473.3386
68493.836
68471.2258
68496.0437
68469.1386
68498.2357
68467.1145
68500.3943
68465.1921
68502.4959
68463.4098
68504.5202
68461.8046
68506.4496
68460.4104
68508.267
68459.2541
68509.9501
68458.3495
68511.4569
68457.6857
68512.7041
68457.2101
68513.5354
68456.7864
68513.7007
68456.3853
68513.5462
68456.3004
68513.0822
68455.9191
68512.3976
68455.069
68511.4094
68453.5298
68509.9324
68450.9698
68507.933
68446.9584
68505.1235
68441.2861
68502.2509
68434.9985
68499.8689
68430.544
68498.9075
68431.8917
68496.2548
68438.1254
68470.5415
68403.788
68457.0574
68388.726
68418.2914
68401.6665
68407.5459
68353.4874
68345.4754
68286.8868
68317.9144
68282.2902
68226.0807
68224.3017
68197.4978
68122.6082
68071.8916
68087.8318
68030.3076
68001.2726
68898.0071
68897.7115
68898.8792
68896.467
68900.3015
68894.9344
68901.9437
68893.227
68903.7379
68891.3968
68905.6432
68889.4841
68907.6262
68887.5218
68909.6625
68885.536
68911.7352
68883.5477
68913.8337
68881.5757
68915.9514
68879.6449
68918.0858
68877.7879
68920.2377
68876.0081
68922.4039
68874.3314
68924.5721
68872.791
68926.7075
68871.415
68928.7306
68870.2654
68930.4923
68869.3931
68931.748
68868.8507
68932.2712
68868.7755
68932.0962
68868.9296
68931.581
68868.9026
68930.7437
68868.4901
68929.4573
68867.061
68926.738
68863.781
68921.2473
68856.7653
68911.1406
68843.7289
68891.915
68823.5871
68862.867
68800.0726
68830.4395
68779.6997
68797.1349
68769.1205
68743.5804
68750.3192
68720.1187
68745.8363
68666.8874
68677.222
68602.0056
68642.6333
68559.233
68481.1327
68470.3168
68438.4939
68401.8864
68338.8788
68221.971
68153.2426
68145.572
68082.2293
69152.3524
69152.3735
69152.3454
69152.4089
69152.3103
69152.4512
69152.273
69152.498
69152.2397
69152.5447
69152.2173
69152.5857
69152.215
69152.6135
69152.245
69152.6186
69152.3239
69152.5891
69152.4732
69152.5098
69152.7209
69152.3629
69153.1007
69152.1286
69153.6522
69151.787
69154.4181
69151.3208
69155.4418
69150.7211
69156.7597
69149.9963
69158.3878
69149.1922
69160.282
69148.4213
69162.2508
69147.8331
69163.8883
69147.3949
69164.9866
69147.2089
69166.3845
69147.4543
69167.6181
69147.6362
69169.6064
69147.525
69172.2957
69147.0783
69175.7527
69146.11
69180.8549
69144.7068
69189.7065
69143.9549
69206.6081
69149.4236
69232.7814
69174.7896
69245.0547
69181.4468
69247.2344
69159.3375
69217.138
69120.0662
69172.4702
69138.4888
69084.9621
69062.9722
69027.4033
68990.1715
68905.9595
68835.3028
68725.7001
68602.3995
68476.5497
68341.3819
68183.2141
68063.8643
69549.1954
69549.6334
69548.0318
69551.3586
69546.0508
69553.5347
69543.7068
69556.0225
69541.099
69558.7337
69538.312
69561.5887
69535.4209
69564.52
69532.489
69567.4712
69529.5723
69570.3916
69526.7258
69573.2304
69524.01
69575.9434
69521.4963
69578.4683
69519.2674
69580.7385
69517.4161
69582.6676
69516.0392
69584.2092
69515.3002
69585.3324
69515.2309
69586.0234
69515.8326
69586.3045
69517.1243
69586.2601
69518.9779
69586.0347
69521.1285
69585.9113
69523.4306
69586.0992
69526.3584
69586.585
69530.3739
69587.2543
69535.7411
69588.6326
69543.1212
69591.495
69552.882
69596.3729
69564.4339
69602.6475
69574.7257
69602.2994
69578.1729
69576.9249
69579.7439
69551.0941
69578.0443
69558.1561
69553.1049
69538.2172
69484.3242
69490.314
69443.582
69380.56
69387.4779
69349.0179
69370.4351
69328.2337
69306.7957
69142.1628
68968.7136
68745.808
68544.6496
68232.8595
69242.9729
69242.2626
69244.8926
69239.4173
69248.173
69235.7765
69252.1165
69231.5608
69256.5569
69226.9254
69261.3449
69222.0093
69266.355
69216.9228
69271.4921
69211.7486
69276.685
69206.5502
69281.8777
69201.3822
69287.0204
69196.2978
69292.0633
69191.3555
69296.9534
69186.6213
69301.6335
69182.17
69306.0422
69178.087
69310.1991
69174.4841
69313.8848
69171.5288
69317.0488
69169.3387
69319.5615
69167.9409
69321.1982
69167.5059
69321.6335
69168.1491
69320.4823
69169.5732
69318.0198
69171.343
69314.2329
69173.1285
69308.1869
69175.0877
69298.3798
69177.6924
69282.1868
69182.1514
69257.1028
69192.2162
69224.9336
69215.0302
69202.9066
69257.4594
69225.5136
69263.0556
69272.1171
69223.6277
69245.5205
69266.103
69278.2253
69325.3953
69308.7625
69333.168
69327.3322
69353.348
69336.2578
69352.1681
69370.6388
69314.489
69303.72
69139.5428
68911.1912
68371.3917
68893.569
68894.1279
68892.0814
68896.3438
68889.4953
68899.2265
68886.344
68902.6017
68882.7731
68906.3257
68878.9229
68910.2651
68874.9166
68914.3079
68870.8557
68918.3608
68866.8286
68922.3391
68862.9203
68926.1564
68859.2231
68929.7159
68855.844
68932.9058
68852.9088
68935.5979
68850.5619
68937.679
68848.9625
68938.997
68848.2669
68939.3867
68848.6731
68938.7853
68850.1624
68937.0803
68852.7508
68934.5815
68856.2286
68931.6168
68860.1614
68928.6614
68863.8109
68926.4016
68866.8875
68924.0123
68871.2318
68920.8154
68877.2049
68916.4536
68885.1679
68910.3489
68894.2633
68902.0369
68901.8887
68893.4735
68903.0149
68890.0261
68895.8531
68885.2929
68862.0831
68865.7793
68856.0439
68846.8543
68838.3809
68835.5432
68810.9673
68774.2659
68785.6503
68803.7422
68891.5468
68867.4804
69035.2864
69008.0657
69223.2912
69223.0479
69359.0011
69419.1796
69534.3191
68731.4928
68376.1917
68375.9102
68376.9563
68374.7671
68378.2975
68373.2533
68379.9622
68371.458
68381.8709
68369.4606
68383.9468
68367.333
68386.1256
68365.1323
68388.3583
68362.9021
68390.6076
68360.6774
68392.8424
68358.4895
68395.0338
68356.3697
68397.1513
68354.3512
68399.1619
68352.4691
68401.0304
68350.7977
68402.7281
68349.2998
68404.2161
68348.026
68405.5006
68346.9872
68406.5827
68346.1745
68407.3088
68345.5173
68407.7185
68344.9155
68407.7654
68344.1972
68407.3585
68343.2615
68406.3867
68341.8039
68405.5384
68339.867
68404.9286
68337.608
68405.2845
68335.8531
68407.8713
68336.807
68414.4149
68344.3283
68423.7485
68361.2256
68418.6948
68385.4669
68400.8953
68408.3141
68368.6347
68415.5646
68359.2918
68419.5727
68378.3909
68456.6813
68415.7144
68418.2465
68425.4614
68418.6432
68470.3266
68398.881
68566.959
68620.4943
68771.038
68919.0815
69646.698
68993.8135
68609.5054
68609.7584
68608.8511
68610.7463
68607.6717
68612.0855
68606.1865
68613.6954
68604.4719
68615.4982
68602.6037
68617.424
68600.6453
68619.4175
68598.6471
68621.4353
68596.6503
68623.4415
68594.6926
68625.402
68592.8132
68627.2812
68591.0567
68629.0388
68589.4749
68630.6302
68588.1263
68632.0088
68587.0863
68633.1335
68586.4209
68634.0625
68586.17
68634.6228
68586.3459
68634.9216
68586.956
68635.0419
68587.9375
68635.1455
68589.1507
68635.5002
68590.3445
68636.5509
68591.1844
68638.3536
68592.3079
68641.2544
68594.0852
68645.6149
68597.0187
68651.6988
68601.4709
68658.7194
68606.3339
68661.7963
68606.0491
68650.8909
68596.1763
68646.6458
68559.9949
68627.5393
68484.3807
68609.4918
68433.0041
68538.161
68417.2034
68416.3152
68438.9571
68324.4539
68485.9704
68262.7538
68513.9477
68320.0717
68399.0256
68367.8835
68509.2412
68245.324
69345.6846
69151.423
68462.5819
68462.5567
68462.6559
68462.4402
68462.7899
68462.2814
68462.9628
68462.0904
68463.1635
68461.8782
68463.381
68461.6558
68463.6047
68461.4337
68463.8245
68461.2233
68464.0296
68461.0379
68464.2065
68460.8954
68464.3383
68460.8205
68464.4031
68460.8482
68464.3722
68461.0259
68464.2113
68461.4122
68463.8817
68462.0547
68463.3281
68463.0373
68462.4922
68464.3498
68461.332
68466.172
68459.8384
68468.4724
68458.0519
68471.1294
68456.098
68473.8399
68454.251
68475.9527
68452.9549
68476.5473
68451.5387
68476.6294
68448.8309
68475.9677
68443.7978
68473.9721
68435.4932
68470.5605
68425.3086
68469.5878
68422.9109
68489.9432
68438.1088
68496.3843
68479.0267
68521.7216
68522.0779
68571.967
68560.496
68533.7823
68555.6543
68555.9641
68607.8622
68494.8895
68550.52
68426.6704
68463.596
68440.012
68330.2547
68268.2972
68503.6102
67690.1912
68545.1835
69024.787
68509.3519
68510.6038
68506.1244
68515.561
68500.0743
68522.5744
68492.1973
68531.1871
68482.9583
68540.9336
68472.7962
68551.417
68462.0584
68562.3398
68450.9971
68573.4888
68439.7946
68584.7064
68428.5922
68595.8633
68417.5158
68606.8355
68406.6962
68617.4875
68396.2845
68627.6605
68386.4612
68637.1673
68377.4391
68645.7934
68369.4623
68653.3013
68362.8027
68659.4358
68357.7571
68664.043
68354.6568
68666.6727
68353.8073
68667.1476
68355.4851
68665.3667
68359.9723
68661.3165
68367.0571
68655.1931
68376.2268
68647.8841
68387.6453
68639.1045
68401.3291
68628.4941
68416.6403
68615.4897
68430.6922
68597.3334
68437.3274
68547.8252
68442.9804
68483.2751
68458.3579
68362.6813
68466.8817
68272.0774
68447.0301
68129.364
68489.1701
68010.2602
68533.5808
68082.0325
68423.3375
68307.6855
68336.8893
68418.1595
68485.0788
68115.1948
69038.9461
67967.4773
68126.1599
68761.8119
68212.9235
68213.2797
68212.0137
68214.69
68210.2628
68216.735
68207.9521
68219.2661
68205.235
68222.1298
68202.2566
68225.1928
68199.1373
68228.3475
68195.9753
68231.5036
68192.8576
68234.5757
68189.8732
68237.4707
68187.1251
68240.0759
68184.7415
68242.2488
68182.8845
68243.8095
68181.7546
68244.5386
68181.589
68244.181
68182.6511
68242.4584
68185.2091
68239.0922
68189.4998
68233.8402
68195.6699
68226.5552
68203.6825
68217.2766
68213.1736
68206.3676
68223.2539
68194.6764
68232.3205
68183.5468
68239.6464
68171.2401
68248.0799
68155.7249
68257.9051
68136.928
68268.1854
68114.5878
68276.6283
68083.9251
68282.5524
68046.4587
68295.4372
67987.9169
68327.3538
67969.9071
68378.343
67942.3638
68420.8979
67917.0235
68370.5698
68005.1946
68215.2165
68164.5328
67991.1114
68266.0912
67886.71
68028.1959
68395.8227
67531.0017
68628.3745
68242.0185
67888.1253
68562.1647
68508.5236
68508.0044
68509.8306
68505.944
68512.407
68502.8916
68515.8717
68499.066
68520.0004
68494.6793
68524.6041
68489.8912
68529.5559
68484.7964
68534.7937
68479.4272
68540.3143
68473.76
68546.1716
68467.7149
68552.4759
68461.1535
68559.3991
68453.873
68567.181
68445.5982
68576.1345
68435.9796
68586.6414
68424.5994
68599.1337
68410.9999
68614.0447
68394.7448
68631.713
68375.5385
68652.1911
68353.4335
68674.8628
68329.1476
68698.392
68304.5816
68719.4952
68283.332
68732.713
68271.0294
68733.2192
68263.8101
68729.1438
68253.8577
68720.7611
68239.1533
68706.5322
68215.4176
68686.6675
68182.6737
68659.8329
68161.1861
68606.3581
68143.1378
68525.6724
68074.8788
68445.9891
68091.5247
68308.381
68073.7744
68159.4197
68084.499
68011.4039
68169.6077
67919.0019
68087.3642
68184.2213
67606.3146
68581.6068
67299.3964
68087.3791
68434.3256
67959.1352
68377.5339
68263.5073
68259.6309
68273.2214
68244.104
68293.0042
68220.4862
68319.9562
68190.6944
68352.1146
68156.596
68387.7828
68119.6791
68425.6906
68081.0061
68464.9644
68041.2899
68505.0274
68001.0007
68545.4967
67960.4611
68586.0992
67919.919
68626.6094
67879.5728
68666.8003
67839.6836
68706.4206
67800.5366
68745.1758
67762.4597
68782.8117
67725.8487
68818.8987
67691.1854
68852.956
67659.1305
68884.2913
67630.6836
68911.804
67607.4405
68933.7962
67591.9846
68947.1261
67588.3064
68947.2843
67602.5265
68929.5674
67633.0583
68902.6547
67673.5639
68868.9168
67726.8334
68823.7699
67805.186
68754.8341
67923.1842
68648.3216
68046.1365
68510.9576
68178.5797
68343.7162
68358.2867
68136.5555
68540.2578
67985.8518
68665.2714
67819.0223
68661.8007
67760.9698
68464.448
68048.3927
67919.1264
68454.4735
67385.0592
68511.9762
67570.6359
67468.7548
68124.6123
67760.7552
68275.1237
68428.1292
68424.1035
68438.1468
68407.8461
68459.1841
68382.5185
68488.2186
68350.3434
68522.9989
68313.436
68561.6135
68273.473
68602.6251
68231.6671
68645.0209
68188.8639
68688.0914
68145.6699
68731.3057
68102.5694
68774.2049
68060.0206
68816.3166
68018.4843
68857.0797
67978.6265
68895.807
67941.2296
68931.6538
67907.2485
68963.7193
67877.7729
68990.7465
67853.9794
69011.3893
67837.1622
69024.2931
67828.6512
69028.0998
67829.6857
69021.4913
67841.2078
69003.382
67863.6424
68972.916
67897.0448
68929.3669
67940.7393
68871.4781
67996.8066
68794.2018
68065.87
68694.304
68139.0105
68574.376
68204.9902
68432.0119
68311.6623
68238.1704
68455.8047
68001.0704
68566.1438
67769.3232
68634.5406
67611.4654
68609.4929
67546.5912
68382.5651
67777.2114
67884.4974
68264.4238
67266.8781
68658.8593
67230.0094
68147.6293
67867.7128
67631.8728
68172.345
67743.39
68079.9568
68287.9417
68285.6987
68293.4733
68276.5593
68305.4941
68261.9655
68322.2893
68243.3174
68342.4656
68221.9032
68364.8679
68198.7354
68388.6249
68174.557
68413.1052
68149.9105
68437.8365
68125.2225
68462.4219
68100.8822
68486.467
68077.3098
68509.5164
68055.0142
68531.001
68034.6392
68550.1982
68016.9911
68566.2149
68003.0387
68578.0018
67993.8771
68584.4008
67990.6535
68584.2314
67994.4451
68576.4264
68006.0663
68560.2482
68025.7521
68535.6467
68052.6449
68503.8468
68084.0718
68468.2474
68114.3956
68434.915
68140.4122
68401.9814
68170.0287
68364.5964
68208.2597
68321.4106
68263.0327
68260.4076
68332.9444
68172.6992
68371.9122
68087.7121
68402.6365
68036.1591
68477.7985
67969.4446
68547.624
67889.9729
68493.3416
67905.7802
68224.336
67998.6467
67787.4026
68196.9961
67216.8212
68268.8745
67206.0855
67678.9285
67736.0403
67284.6682
67924.1313
67561.1831
68004.9432
68652.715
68653.4479
68650.9458
68656.3992
68646.9978
68661.2242
68641.4173
68667.4428
68634.665
68674.6433
68627.0957
68682.5318
68618.9441
68690.9326
68610.3327
68699.7757
68601.2863
68709.0836
68591.7423
68718.9648
68581.5531
68729.6163
68570.4804
68741.3314
68558.1865
68754.5078
68544.228
68769.6487
68528.0566
68787.3434
68509.0553
68808.2105
68486.6057
68832.7921
68460.3245
68861.3739
68430.1489
68893.6243
68396.8633
68928.1043
68362.6666
68961.6498
68331.9261
68988.1723
68311.6799
68998.2404
68311.4397
68985.5682
68324.2041
68962.2149
68334.2474
68927.7267
68335.2145
68873.1745
68326.8881
68805.1152
68312.081
68745.2907
68288.3645
68636.2526
68285.2811
68448.5323
68351.1731
68204.9314
68402.957
67936.3496
68383.833
67736.1177
68373.6595
67422.0941
68278.4833
67226.0912
68220.6817
67268.1877
67550.2414
67707.5196
67270.827
67967.5119
67584.6531
67834.5096
68678.3416
68680.3205
68673.5742
68688.4652
68662.5037
68702.1052
68646.6825
68719.7564
68627.5229
68740.1581
68606.1255
68762.3714
68583.2747
68785.7556
68559.4857
68809.9065
68535.0719
68834.5887
68510.2078
68859.6803
68484.9756
68885.1328
68459.3975
68910.9444
68433.4569
68937.1394
68407.1127
68963.7527
68380.3096
68990.8144
68352.984
69018.2569
68325.0555
69045.97
68296.6582
69073.8833
68267.8892
69101.1354
68239.4337
69126.2148
68212.678
69146.4352
68190.4119
69156.7258
68177.2107
69149.145
68181.0257
69114.9482
68201.4227
69061.4485
68232.201
68990.2648
68276.149
68901.7003
68343.1073
68789.2257
68434.0061
68636.1891
68535.77
68459.228
68653.0756
68263.9607
68747.4561
68027.2597
68859.3472
67752.5352
68787.9178
67562.6262
68504.6492
67477.1504
68050.5192
67550.3406
67765.1871
67379.7005
67387.037
67667.7561
66887.224
67643.069
67383.4786
67782.5128
69101.5183
69104.4721
69094.4639
69116.7919
69077.434
69137.9374
69052.8148
69165.462
69022.9021
69197.3314
68989.472
69232.0209
68953.8132
69268.4583
68916.8124
69305.915
68879.0746
69343.8849
68841.0372
69381.9796
68803.0648
69419.8438
68765.5239
69457.0854
68728.8437
69493.2201
68693.5621
69527.6307
68660.3505
69559.5488
68630.0122
69588.0614
68603.4279
69612.3494
68581.6406
69630.8818
68565.5401
69642.5108
68555.9854
69646.0354
68553.7019
69640.186
68559.2658
69623.382
68573.1428
69593.942
68596.4877
69550.0116
68629.5617
69491.9825
68674.4066
69419.329
68731.0092
69327.351
68774.6675
69181.2728
68801.0307
68974.0517
68867.4557
68694.9265
68941.6993
68335.0314
69000.585
67929.6133
68926.2686
67492.3013
68851.7596
67080.8555
68630.323
67048.3993
68180.7508
67432.7169
67508.895
67318.1738
67186.8508
67674.7512
67031.0992
67641.133
67392.866
67607.1632
69368.7677
69370.1387
69365.533
69375.9085
69357.4256
69386.0492
69345.5894
69399.311
69331.1766
69414.6861
69315.0624
69431.4275
69297.8808
69449.0077
69280.076
69467.0601
69261.9652
69485.3155
69243.8007
69503.546
69225.8225
69521.5168
69208.3038
69538.9445
69191.5916
69555.4608
69176.1402
69570.584
69162.5332
69583.7062
69151.4897
69594.0993
69143.8492
69600.9387
69140.5428
69603.3239
69142.5146
69600.2616
69150.5728
69591.1417
69164.9158
69576.2548
69184.5847
69556.6517
69206.357
69534.1067
69223.9799
69510.7615
69231.4702
69482.6937
69228.0113
69431.5773
69209.5217
69336.6515
69201.5781
69236.3655
69213.3407
69097.8922
69168.4728
68931.404
69112.2306
68665.1877
69054.9396
68262.4915
69013.4305
67792.0523
68829.4438
67411.4406
68598.1422
67222.5112
68198.9443
67280.7265
67108.2785
67467.3282
66843.5489
67487.6524
66723.927
67365.2507
67186.1596
67584.737
69954.2755
69955.4336
69951.5753
69960.3585
69944.5376
69969.2217
69934.1546
69980.8728
69921.473
69994.4037
69907.2764
70009.1452
69892.131
70024.6233
69876.4339
70040.5034
69860.4713
70056.5324
69844.4728
70072.4853
69828.6591
70088.1188
69813.2811
70103.1267
69798.6529
70117.0999
69785.1777
70129.5381
69773.3446
70139.8334
69763.679
70147.2138
69756.6974
70150.8824
69752.7898
70150.3614
69752.1066
70144.2663
69754.5074
70131.7832
69759.4692
70111.9966
69766.8784
70083.7997
69776.0787
70045.5585
69783.6354
69996.361
69781.4168
69935.6877
69774.3172
69860.7673
69773.4631
69772.4414
69767.9588
69610.084
69732.0284
69390.1687
69667.8134
69066.2324
69514.0829
68607.591
69371.5332
68118.4944
69223.407
67621.1771
69001.7534
67313.986
68646.3851
67115.0029
68089.141
67128.5615
67097.8567
67610.2041
66732.2787
67363.1908
66832.2553
67366.2629
67191.6115
67398.9212
70149.1736
70149.1769
70149.1516
70149.2256
70149.0878
70149.3226
70148.9937
70149.4465
70148.8926
70149.5738
70148.8133
70149.6754
70148.794
70149.7114
70148.8882
70149.6247
70149.1736
70149.3303
70149.7644
70148.7019
70150.8273
70147.5527
70152.603
70145.6049
70155.4318
70142.3504
70159.7663
70137.47
70166.25
70130.1431
70175.6965
70119.4388
70189.0604
70104.2324
70207.3694
70083.2668
70231.4647
70055.2697
70261.2526
70019.6199
70294.4195
69976.5721
70324.039
69928.8391
70338.3169
69881.9556
70329.6148
69842.4264
70313.0156
69796.7616
70323.1695
69698.6454
70306.2282
69589.3961
70249.7726
69445.3878
70157.027
69230.486
70041.6154
68924.15
69927.8935
68646.8911
69681.1936
68275.029
69404.0912
67965.9724
69011.7763
67564.977
68397.3655
67346.5687
67579.7601
67180.6091
66811.6568
67432.5822
66593.0043
67271.8917
66514.4688
67013.5062
66980.7444
67405.2248
71021.0722
71019.9625
71023.5437
71015.2487
71030.5513
71006.3226
71041.1323
70994.4367
71054.1735
70980.5353
71068.8848
70965.2809
71084.7289
70949.1118
71101.3672
70932.2966
71118.6066
70914.9841
71136.3549
70897.2413
71154.5876
70879.0791
71173.3244
70860.4667
71192.6097
70841.257
71212.4843
70821.5892
71233.0176
70801.0607
71254.2348
70779.5394
71276.0929
70756.7268
71298.4582
70732.2716
71321.0269
70705.7156
71343.2989
70676.4701
71364.5323
70643.9999
71383.2788
70608.2128
71394.1641
70572.2304
71380.7254
70540.9162
71322.0319
70508.6532
71217.5238
70499.2998
71128.5361
70369.6394
71046.691
70173.2881
70882.6936
69956.9
70621.7066
69661.2093
70270.3101
69261.1492
69779.1648
68816.4182
69256.9045
68281.7203
68740.7435
67672.6368
68104.2912
67180.3605
67577.1024
66965.0045
66907.8628
67354.7559
66316.5892
67211.3574
66693.3059
67098.6356
66968.3562
67208.3379
71904.5577
71902.9567
71908.0272
71896.1627
71918.3313
71882.9114
71934.1072
71865.1353
71953.6338
71844.2856
71975.7025
71821.3968
71999.4917
71797.15
72024.4725
71771.8818
72050.3062
71745.9251
72076.788
71719.4604
72103.7793
71692.6227
72131.1584
71665.5433
72158.7775
71638.3923
72186.4255
71611.391
72213.7979
71584.7341
72240.4693
71558.6335
72265.8763
71533.2335
72289.2659
71508.5495
72309.5397
71484.4177
72324.9279
71460.4315
72332.5188
71435.6021
72328.262
71407.1127
72307.9473
71369.814
72266.195
71313.2467
72196.823
71222.8442
72093.715
71074.4594
71940.8522
70925.5813
71666.6774
70748.9374
71359.9665
70363.1605
71037.1481
69942.3307
70536.8373
69472.9723
70059.3644
68929.0133
69416.2668
68380.8899
68747.8411
67901.7553
67921.9659
67317.1292
67227.7975
67141.1255
66577.3061
67375.283
66251.5954
66968.9191
66310.5151
66837.7919
66782.5002
67226.7461
73094.9787
73093.1623
73098.7437
73085.5974
73110.5607
73070.2637
73129.0267
73049.4164
73152.0695
73024.7925
73178.2581
72997.5837
73206.6302
72968.5787
73236.5688
72938.2319
73267.6873
72906.9855
73299.7587
72874.9733
73332.6134
72842.3524
73366.0788
72809.2842
73399.9114
72775.9678
73433.7215
72742.6644
73466.8883
72709.7044
73498.4626
72677.4757
73527.0466
72646.3839
73550.6458
72616.7363
73566.5487
72588.41
73571.339
72560.1462
73560.8502
72528.7723
73529.1427
72489.3129
73467.9821
72431.5708
73373.3612
72352.0489
73223.6327
72200.0221
73090.0291
71967.3819
72907.2156
71643.4219
72675.1771
71449.5743
72172.6275
70986.2815
71747.5168
70427.7186
71099.5181
69705.0132
70231.688
69033.1946
69364.5576
68351.3139
68479.9692
67812.198
67758.8641
67234.5984
66937.1923
67072.2657
66660.7049
67245.1917
66289.8661
67125.0678
66502.4118
66834.2512
66759.2788
67033.8482
74770.3116
74768.4771
74773.7226
74761.2995
74785.2787
74745.7664
74804.0461
74724.1698
74827.8013
74698.3349
74855.0336
74669.4585
74884.7544
74638.2972
74916.3478
74605.2988
74949.4293
74570.6883
74983.7422
74534.5585
75019.0713
74496.9213
75055.1507
74457.7387
75091.5869
74416.9354
75127.7686
74374.3564
75162.7721
74329.6688
75195.2589
74282.2116
75223.3238
74230.8358
75244.2542
74173.8055
75254.2519
74108.9285
75247.8482
74034.321
75216.4017
73950.4342
75142.8924
73864.5291
74986.2124
73783.4146
74720.2683
73604.3761
74486.7056
73335.8028
74172.7456
73017.777
73876.1224
72545.9461
73471.4271
71744.7834
72787.33
71298.0552
71883.9156
70726.7874
71015.0509
70094.3686
70135.1421
69408.3845
69182.9651
68778.9733
68264.2518
68016.4718
67452.7777
67447.4372
66895.2808
67214.8897
66585.2666
67340.3483
66157.2735
67101.5682
66341.4479
66721.2985
66603.0013
67072.4896
76711.4535
76709.5241
76714.5333
76702.9307
76725.3246
76687.7289
76743.5244
76666.5233
76766.2284
76641.7063
76791.7375
76613.9979
76819.8598
76582.9678
76851.0456
76548.3038
76885.0875
76510.3222
76921.3724
76469.2866
76959.3001
76425.3611
76998.2072
76378.5409
77037.4234
76328.6124
77076.0971
76275.1977
77113.0537
76217.6051
77146.7892
76154.501
77175.4936
76083.5081
77196.8872
76000.8622
77207.6234
75901.2146
77201.9438
75777.3001
77169.8622
75617.7909
77098.2595
75400.935
76978.5991
75097.4046
76764.9784
74751.3751
76297.618
74472.1149
75699.9096
74028.25
75038.7231
73326.793
74345.6277
72747.8158
73593.1846
72023.3372
72481.8354
71172.8512
71509.08
70249.8177
70358.2851
69381.9992
69293.4035
68509.9929
68242.5131
67812.9389
67262.4716
67445.6356
66859.8569
67433.93
66776.2624
67689.9584
66561.3916
67388.4488
66646.2848
66943.2045
66635.8489
66897.2739
77660.0425
77657.2308
77664.4226
77647.8115
77679.9297
77625.6104
77706.8351
77593.6746
77741.5523
77555.036
77781.5921
77511.5486
77825.3994
77464.2526
77872.0172
77413.6291
77920.873
77359.7946
77971.598
77302.6192
78023.8655
77241.8392
78077.2423
77177.1652
78130.9947
77108.3931
78183.8662
77035.5218
78233.8485
76958.7546
78278.0505
76878.2315
78312.6821
76793.4958
78333.0424
76702.8237
78333.2637
76602.3822
78305.8217
76484.671
78241.2083
76335.2472
78128.7618
76128.2084
77957.4232
75830.0454
77697.4017
75427.6393
77332.1832
74843.1921
76815.8554
74230.0612
75842.8885
73617.1721
74649.6529
72813.084
73663.658
71891.2452
72569.4745
70938.332
71274.407
70067.0723
70074.1341
69147.2536
68931.131
68409.8903
67994.7658
67942.1509
67300.7609
67791.8623
66874.5123
67897.2157
66945.3914
67809.1016
66908.3961
67760.1786
66808.3735
66974.9965
66561.4753
66985.1209
77861.3037
77857.8398
77866.6751
77846.0672
77885.6126
77819.0932
77917.8505
77780.8805
77958.9568
77735.1225
78005.8737
77684.0934
78056.6857
77629.0733
78110.237
77570.6465
78165.8581
77508.9069
78223.1589
77443.6057
78281.8526
77374.2654
78341.5861
77300.2914
78401.7373
77221.1111
78461.1504
77136.3668
78517.7964
77046.1234
78568.3959
76950.8665
78608.2382
76850.9989
78631.2182
76745.9642
78629.7503
76633.3594
78594.259
76508.0319
78512.2643
76360.7689
78367.3585
76175.3195
78138.7078
75918.5775
77801.7973
75516.3404
77355.1548
74916.1654
76773.6206
74284.5778
75961.2787
73601.397
74899.1689
72799.7456
73741.7103
71843.839
72460.4792
70891.3404
71197.4659
69951.8173
69912.5362
69145.4521
68694.2141
68506.3965
67777.4528
68182.113
67185.1248
67979.6702
67155.5107
68029.5211
67424.9115
68147.5426
67234.9019
67984.8267
67430.5994
67471.1755
66729.7307
66859.6214
77480.9125
77477.6458
77485.8815
77466.1994
77503.5492
77440.8499
77533.0417
77405.5215
77570.2008
77363.605
77612.159
77317.2018
77657.0696
77267.4971
77703.7738
77215.0142
77751.5581
77159.7858
77799.9716
77101.467
77848.6741
77039.4075
77897.2972
76972.709
77945.2855
76900.3061
77991.6432
76821.1082
78034.6033
76734.2141
78071.2295
76639.0869
78097.0031
76535.3136
78105.6206
76421.7394
78088.8645
76295.4312
78036.07
76150.8595
77932.8552
75979.2405
77759.0684
75767.0065
77487.1168
75487.1238
77086.8446
75073.9424
76549.5928
74468.9678
75850.8182
73793.9972
75088.5847
73007.6359
74136.7305
72203.4717
72993.1589
71244.3838
71926.8593
70272.8991
70669.8963
69462.3304
69536.5495
68720.8505
68602.4332
68165.2224
67780.047
68063.3108
67324.3306
68304.225
67255.0498
68358.3232
67388.3649
68087.9002
67498.3547
68085.2621
67480.2328
67813.8731
66840.2915
67033.7725
76749.4236
76745.8557
76754.6056
76733.0118
76773.2587
76705.9083
76803.6242
76668.8872
76841.371
76625.3813
76883.5087
76577.5365
76928.0492
76526.5645
76973.6915
76472.9776
77019.5848
76416.7528
77065.1452
76357.4303
77109.9096
76294.1679
77153.3745
76225.7734
77194.8321
76150.7345
77233.2148
76067.2853
77266.7916
75973.5731
77292.7688
75867.9367
77306.7981
75749.004
77302.5546
75615.0345
77271.5661
75462.6757
77203.0818
75285.8163
77083.5326
75074.7014
76895.2461
74815.5854
76614.0623
74490.1664
76209.0556
74069.4703
75659.9522
73524.9894
74966.0292
72897.3195
74242.4248
72179.9064
73351.0777
71379.6016
72340.8842
70574.9305
71212.0025
69788.2779
70141.8624
69072.2955
69113.0455
68525.5098
68109.7566
68204.878
67477.0651
68186.4389
67197.1056
68228.3034
67067.6028
68152.3354
67342.1092
68000.4198
67338.4528
68043.6404
67857.3783
68134.0621
67150.0986
66971.7741
75007.4044
75003.7786
75011.4363
74991.5656
75026.8574
74967.6857
75051.3622
74935.9413
75081.2818
74899.0928
75114.0439
74858.8512
75147.8702
74816.1294
75181.5339
74771.2161
75214.1615
74723.8983
75245.0548
74673.5337
75273.5484
74619.0746
75298.9057
74559.0639
75320.1818
74491.6342
75336.0077
74414.5431
75344.367
74325.2677
75342.3074
74221.2251
75325.6156
74100.0404
75288.4551
73959.1539