/*--------------------------------*- C++ -*----------------------------------*\
| =========                 |                                                 |
| \\      /  F ield         | OpenFOAM: The Open Source CFD Toolbox           |
|  \\    /   O peration     | Version:  v2006                                 |
|   \\  /    A nd           | Website:  www.openfoam.com                      |
|    \\/     M anipulation  |                                                 |
\*---------------------------------------------------------------------------*/
FoamFile
{
    version     2.0;
    format      ascii;
    class       volScalarField;
    location    "0.0391000018";
    object      rho;
}
// * * * * * * * * * * * * * * * * * * * * * * * * * * * * * * * * * * * * * //

dimensions      [1 -3 0 0 0 0 0];


internalField   nonuniform List<scalar> 
14400
(
0.721096461
0.726179857
0.728997404
0.731329416
0.733813966
0.735785098
0.738313939
0.740083604
0.742773956
0.744415181
0.747325803
0.748890812
0.752054396
0.753587988
0.757022518
0.758569264
0.76228716
0.763892136
0.767887304
0.769568212
0.773791822
0.775518399
0.779851399
0.78145892
0.786008385
0.792883682
0.799627727
0.802793773
0.805565275
0.804907133
0.80414623
0.80075291
0.798188905
0.793980358
0.791726859
0.790948541
0.795732176
0.795772946
0.794402933
0.794068132
0.795119825
0.793936452
0.794867379
0.79381762
0.794887316
0.793702332
0.794745142
0.793544165
0.794534674
0.793431422
0.794304954
0.793223723
0.793945456
0.793006038
0.793575123
0.792712573
0.793092469
0.79239677
0.792465342
0.792088022
0.791934861
0.79189119
0.791792161
0.791228764
0.79123225
0.790650671
0.790539191
0.78974914
0.789171355
0.788784451
0.788479566
0.788345648
0.788028832
0.788172169
0.78865053
0.788300619
0.788302492
0.787724938
0.788287384
0.788409118
0.717564677
0.720178764
0.721638801
0.722850711
0.724234466
0.725305337
0.726805128
0.727812523
0.729482363
0.730454892
0.732324318
0.733288545
0.735387014
0.736375293
0.738734519
0.739786066
0.742442174
0.743605837
0.746604378
0.747944103
0.751344337
0.752941771
0.756819568
0.758777342
0.763230521
0.765680627
0.770762412
0.77362303
0.779093011
0.782034958
0.787378254
0.789811559
0.79425349
0.796200239
0.797168906
0.792273311
0.788968477
0.789561935
0.793345923
0.790979721
0.791762954
0.790949809
0.791717212
0.79104925
0.791668093
0.791091162
0.791420652
0.791081291
0.791483794
0.790890415
0.791319206
0.790779369
0.791252486
0.790669234
0.791147874
0.79059446
0.791023642
0.790519188
0.790954465
0.790429027
0.790695381
0.790019838
0.790192785
0.790088465
0.789829002
0.789649557
0.789759939
0.789306154
0.789600108
0.789247347
0.788974373
0.788999793
0.788800899
0.788871335
0.78817713
0.78858408
0.787030706
0.788629044
0.788587784
0.788027427
0.717187116
0.719545101
0.720830355
0.721974515
0.723124037
0.724193672
0.725356462
0.726415207
0.727630279
0.72870317
0.729993253
0.731100848
0.732487102
0.733652174
0.735157697
0.736407789
0.738059879
0.739429364
0.74126159
0.742794109
0.74484879
0.746599683
0.748930339
0.750968876
0.753642309
0.7560522
0.759146328
0.76201717
0.765606221
0.769006249
0.773120689
0.777030919
0.781564535
0.785707456
0.789917095
0.792464382
0.792861911
0.791688097
0.789865678
0.792033996
0.790873509
0.791716653
0.791423555
0.79131303
0.791140826
0.791486396
0.791122593
0.791504807
0.790970568
0.791444054
0.791065078
0.791439928
0.791068984
0.791312847
0.791074482
0.791214783
0.791100936
0.791107451
0.791221285
0.790739699
0.791259926
0.790295832
0.790804411
0.790004643
0.790147237
0.789849906
0.789668951
0.789763821
0.789562096
0.789681246
0.788813782
0.788942582
0.788616127
0.78879715
0.78880165
0.788766727
0.789670973
0.789103862
0.788927005
0.788737617
0.718471417
0.720719198
0.721953967
0.723035872
0.7241531
0.725141741
0.726278061
0.727226183
0.728417904
0.729346145
0.730615753
0.731540823
0.732908244
0.73384696
0.735331355
0.736303184
0.737925591
0.738954187
0.740739805
0.741855254
0.743835689
0.745076903
0.747292611
0.748709767
0.751212701
0.752869821
0.75572598
0.757702744
0.760992568
0.763381558
0.767191216
0.770078344
0.774459299
0.777844294
0.782651051
0.786128084
0.790447649
0.792741319
0.794302482
0.792395699
0.793524586
0.792507058
0.793188109
0.793083441
0.792932598
0.792920921
0.793051633
0.792672246
0.793041213
0.792703186
0.792928632
0.792520168
0.792840436
0.792497754
0.792648809
0.792345714
0.792575414
0.792222955
0.792482341
0.792176454
0.792199497
0.791820381
0.79208629
0.791567955
0.791701176
0.791545157
0.791641444
0.791112814
0.791228868
0.790523378
0.791117691
0.790440012
0.790240839
0.790068817
0.789433347
0.78894222
0.789191385
0.788566328
0.788156298
0.78802849
0.721769266
0.72393317
0.725124488
0.726172897
0.727244696
0.728199519
0.729276273
0.730184918
0.73130129
0.732184243
0.733363335
0.734236941
0.735498097
0.736377377
0.73773822
0.738638504
0.74011705
0.741055956
0.742672961
0.743672582
0.745453906
0.746543121
0.748522001
0.749738837
0.751958245
0.753352067
0.755867691
0.757502319
0.760384902
0.762340921
0.765676237
0.768048191
0.771925994
0.774800028
0.779262807
0.78262483
0.787488747
0.790950857
0.795150944
0.796874461
0.796071797
0.796375827
0.79633449
0.796488248
0.796491672
0.796096994
0.796649543
0.796050171
0.796449428
0.795941262
0.79626432
0.79591123
0.795985264
0.79571713
0.795887206
0.795570441
0.795571602
0.795304774
0.795202308
0.795025857
0.794887673
0.794878916
0.794407431
0.794570901
0.794211249
0.794447394
0.793770453
0.793777109
0.79324233
0.793398856
0.79286207
0.792137392
0.792100456
0.791759847
0.791347559
0.790837289
0.789328373
0.78915393
0.789071834
0.788808332
0.724054214
0.726165483
0.727319383
0.728370504
0.729374958
0.73035764
0.731323108
0.732286476
0.733244366
0.734213447
0.735185658
0.73617974
0.737184095
0.738218946
0.739271029
0.740360737
0.741476019
0.742635084
0.743831235
0.745076753
0.746376019
0.74772986
0.749161424
0.750652421
0.752254782
0.753921069
0.755744608
0.757636396
0.759746276
0.761929082
0.764407832
0.766964757
0.769911095
0.772938331
0.776450188
0.780025523
0.784126538
0.788177908
0.792518936
0.796226806
0.799188763
0.798710681
0.798621479
0.798646654
0.798590605
0.798627899
0.79854009
0.798671798
0.798378442
0.798677025
0.798557068
0.798572809
0.798545688
0.798354868
0.798430052
0.798329686
0.798562114
0.79819365
0.798667477
0.79835173
0.798716313
0.798276501
0.798623076
0.797962698
0.798282653
0.797573413
0.797941403
0.797593055
0.797126165
0.796871593
0.796648568
0.796184959
0.795690019
0.794946399
0.794091112
0.79311567
0.792102766
0.790835685
0.789854057
0.78871256
0.727227843
0.72934299
0.730485918
0.731574199
0.732521759
0.733573931
0.734424198
0.73549722
0.736277919
0.73740513
0.73813575
0.739341771
0.740037599
0.74134082
0.742014816
0.743429853
0.74409472
0.745634809
0.746305164
0.74798441
0.748679071
0.750514707
0.751258985
0.753273332
0.754101622
0.756324308
0.757282695
0.759753043
0.760902465
0.763673239
0.765093219
0.768233744
0.770023481
0.773622716
0.775896943
0.78005347
0.782912146
0.787675548
0.791066612
0.796185699
0.799423196
0.802661171
0.801625279
0.802330055
0.801932537
0.80214368
0.80195965
0.802245955
0.802044869
0.801944341
0.801906486
0.801958909
0.802102386
0.802070054
0.802130598
0.802073895
0.801973985
0.801995342
0.801882277
0.801711459
0.801677612
0.801361003
0.801514437
0.801368528
0.801235455
0.801070964
0.800336385
0.800580819
0.799799335
0.79955255
0.799018074
0.799269467
0.798898598
0.798846879
0.799184165
0.797102305
0.796520685
0.794608099
0.79200949
0.789598996
0.724436252
0.726591894
0.727814254
0.728838183
0.729954556
0.730810599
0.731944608
0.732672759
0.733874981
0.734497131
0.735803239
0.736335109
0.737770388
0.738223872
0.739806609
0.74019187
0.741936459
0.742263872
0.744183451
0.744465542
0.746574311
0.74682781
0.749143192
0.749391253
0.75193604
0.752210617
0.755015227
0.755359729
0.75846488
0.758937433
0.76239847
0.763075163
0.766963084
0.767944622
0.77234899
0.773756116
0.7787727
0.780717489
0.786379622
0.788833825
0.794795935
0.797026668
0.800850079
0.798213056
0.800667853
0.798667331
0.80030543
0.798820186
0.800254
0.798860235
0.800003619
0.798898064
0.799774275
0.798765805
0.799564651
0.798421913
0.799204488
0.798587373
0.798939488
0.798924068
0.798896312
0.79890442
0.799092164
0.798540821
0.798545693
0.798817645
0.798629182
0.799288462
0.798660061
0.799435468
0.798802868
0.799279987
0.799112036
0.799014658
0.799229607
0.799111175
0.798807283
0.797065449
0.795737616
0.791316205
0.720851203
0.723097114
0.724319507
0.72548529
0.726467244
0.7275786
0.728419441
0.729547979
0.730282922
0.731474147
0.732126678
0.733411485
0.73399809
0.735397204
0.73593059
0.737458286
0.737949978
0.739616916
0.74007948
0.741894878
0.742344077
0.744317546
0.744774602
0.746917833
0.747411819
0.749740332
0.75031069
0.752846166
0.753545245
0.756317979
0.757214514
0.76026717
0.761450998
0.76484435
0.766426208
0.770244003
0.772352191
0.776695435
0.779431752
0.784356596
0.787617102
0.792857641
0.795898058
0.79679757
0.796963761
0.79664378
0.797029568
0.79639179
0.796961555
0.796335916
0.796947046
0.79609566
0.79693441
0.796045573
0.796790934
0.796063581
0.796713651
0.795975232
0.796427492
0.795824116
0.795906179
0.795571996
0.795648339
0.795378964
0.79528819
0.795231656
0.794720359
0.794702444
0.794276444
0.794774265
0.79501076
0.795246048
0.79628816
0.796162566
0.799112442
0.797588242
0.798970523
0.800118083
0.800296883
0.793609463
0.716222389
0.718508555
0.719798691
0.720921595
0.722028382
0.722991385
0.724041519
0.724906158
0.725957311
0.726760385
0.727850362
0.728615713
0.729769376
0.73051312
0.731747397
0.732481562
0.733808999
0.734544099
0.735975439
0.736722534
0.738268779
0.739041359
0.740715605
0.741531451
0.743350667
0.744233742
0.746220611
0.747203497
0.749388236
0.750513247
0.752937405
0.754260827
0.756980735
0.758576271
0.76166791
0.763630563
0.767190201
0.769634053
0.77376675
0.776784107
0.781518044
0.784994789
0.789968201
0.791301381
0.793201647
0.791598817
0.793142094
0.791558961
0.793184184
0.791512268
0.792982655
0.791367458
0.792742989
0.79139569
0.79271577
0.791294763
0.792582561
0.791440964
0.792489621
0.791550973
0.792153564
0.791773289
0.791663328
0.791722282
0.791290152
0.791707858
0.791206406
0.7919858
0.791302348
0.791646088
0.790920496
0.791444502
0.791133719
0.791285088
0.792094116
0.793506174
0.794362794
0.795171474
0.801621118
0.796337747
0.717914681
0.720229791
0.721520979
0.722697482
0.723735261
0.724791649
0.725697119
0.72671689
0.72754314
0.728576852
0.729356216
0.730435715
0.731188723
0.732334626
0.733075434
0.734301931
0.735041735
0.736359734
0.737109168
0.738528563
0.739299712
0.740831235
0.741639527
0.74329643
0.744162526
0.745962205
0.746913853
0.748879521
0.749953569
0.752116109
0.753360547
0.755762303
0.757237909
0.75993409
0.761720385
0.76478634
0.766981285
0.770513163
0.773225363
0.777322392
0.780613042
0.785267728
0.788847265
0.793397369
0.793847026
0.794142979
0.793956434
0.793989391
0.793895852
0.794176842
0.793985702
0.79401776
0.793927386
0.793976049
0.793803008
0.794096438
0.793850882
0.793963794
0.793516458
0.79378955
0.793371323
0.793418276
0.792582316
0.793153309
0.791886676
0.792503217
0.791625902
0.791376313
0.791692582
0.790623282
0.792887525
0.790192346
0.793936016
0.790399724
0.791189371
0.791096565
0.792366003
0.790525048
0.799148788
0.797198359
0.716722976
0.719083855
0.72042081
0.721594808
0.722676293
0.723680306
0.724649925
0.725572238
0.726496673
0.727386991
0.728305317
0.729193398
0.73012954
0.731034306
0.73200383
0.732938495
0.733952538
0.734927784
0.735995616
0.737021911
0.738152866
0.73924246
0.740447641
0.741616532
0.742910424
0.744180351
0.745582445
0.746982862
0.748519345
0.750089239
0.751795082
0.753585826
0.755507163
0.757584463
0.759783426
0.7622323
0.764789305
0.767712401
0.770727916
0.774229491
0.777800266
0.78189926
0.785980258
0.790215745
0.792634848
0.793026144
0.792716928
0.792969281
0.792744765
0.792886413
0.792643146
0.7929067
0.792522873
0.792579228
0.792280329
0.792706157
0.792112591
0.792617645
0.79218168
0.792603327
0.792354761
0.792597759
0.792569862
0.792831188
0.792876071
0.792384944
0.792897166
0.792384419
0.793309816
0.791678532
0.792173908
0.791151674
0.789791251
0.792171234
0.790988766
0.789971193
0.792242945
0.785054088
0.792449844
0.796578991
0.716796385
0.719267859
0.720617917
0.721933609
0.722873279
0.724136254
0.724787759
0.726138885
0.726544825
0.72806672
0.728245883
0.729988976
0.729951006
0.73194679
0.73169811
0.733966767
0.733513255
0.736068317
0.735416971
0.738268314
0.737428794
0.740584714
0.739571116
0.743039917
0.741872868
0.7456642
0.744373202
0.74849933
0.747125251
0.751602443
0.750200165
0.755050572
0.753692067
0.75894647
0.757724426
0.763427043
0.762457274
0.768665155
0.768088225
0.774867195
0.774824403
0.78219095
0.782705986
0.790211707
0.790145767
0.794928289
0.791136309
0.794777323
0.791348046
0.794553248
0.791440868
0.794522708
0.791536321
0.794302403
0.791672658
0.793888799
0.791592945
0.793347422
0.791786617
0.792484444
0.791849916
0.791166865
0.791955526
0.790321388
0.791960655
0.788933799
0.792379212
0.78777286
0.792830482
0.788242279
0.792116299
0.790228754
0.793148361
0.790538965
0.791456004
0.789384704
0.79629225
0.787840706
0.789227683
0.794012198
0.714431103
0.716959811
0.718389208
0.719657262
0.720722883
0.721818482
0.7226957
0.723749048
0.724510805
0.725589427
0.726272929
0.727415099
0.728041811
0.729270354
0.729854459
0.731183436
0.731736105
0.733174451
0.733706547
0.735260229
0.735784515
0.737457972
0.737991282
0.73978851
0.740354089
0.742279577
0.742909561
0.744969236
0.745707175
0.747909583
0.74881294
0.751171157
0.752313792
0.754848809
0.756323236
0.759069529
0.760987402
0.764000537
0.766485695
0.769848257
0.773001349
0.77680562
0.780549904
0.784689192
0.788465443
0.790672287
0.790099155
0.790883466
0.790125438
0.790692008
0.790091755
0.790539546
0.790095743
0.790325538
0.790144846
0.789692308
0.790378041
0.789173408
0.790297847
0.788645899
0.790749459
0.788391964
0.791209835
0.78764304
0.791667766
0.78720999
0.791386187
0.787668545
0.79028457
0.788910578
0.78896404
0.789809647
0.786190898
0.789264203
0.791141802
0.783652555
0.792920647
0.78995347
0.787048375
0.792805787
0.716549005
0.719144024
0.720654835
0.721876841
0.723065481
0.723992769
0.725096643
0.725846202
0.726971212
0.727592938
0.728796248
0.729314563
0.730630561
0.731058362
0.732509956
0.732854045
0.734458761
0.734722239
0.736496232
0.73667961
0.738640851
0.73874262
0.74091385
0.740930804
0.743342572
0.743269985
0.7459638
0.745795593
0.748827019
0.748556185
0.751997601
0.75161763
0.755560264
0.755068927
0.75962317
0.759030796
0.764321817
0.763666982
0.769816632
0.769192662
0.776267393
0.775857624
0.783679577
0.783822051
0.791284251
0.791808318
0.793819488
0.791940504
0.793754389
0.791595239
0.793617434
0.791364199
0.793573071
0.791270566
0.793619769
0.790913076
0.793348077
0.790547637
0.793018076
0.79003192
0.792166996
0.789172412
0.791576293
0.789149319
0.790603605
0.788526356
0.789597821
0.788407976
0.78858179
0.788843714
0.787546508
0.788287409
0.790529422
0.783375226
0.792207584
0.782617261
0.788335461
0.791473017
0.787874724
0.790898357
0.71507617
0.717698765
0.71937517
0.720344344
0.721980394
0.722233453
0.724243033
0.723786798
0.726390475
0.725187256
0.728518481
0.726532307
0.730674808
0.727879585
0.732886751
0.729265573
0.735172276
0.730715419
0.737545472
0.732249082
0.740019934
0.733885832
0.742611539
0.7356478
0.74534117
0.73756442
0.748237801
0.739675421
0.751341689
0.742034403
0.754708674
0.744712774
0.758411708
0.747804378
0.762546808
0.751432574
0.7672371
0.755759622
0.772634172
0.760995359
0.778901334
0.767392299
0.786091769
0.775194645
0.793232665
0.784590706
0.795968574
0.786582286
0.796007896
0.787186439
0.795801493
0.787380742
0.795307504
0.78771524
0.794392064
0.78857947
0.793655925
0.789416502
0.792249318
0.790389268
0.790731227
0.791688484
0.789193455
0.792883904
0.787961301
0.793717757
0.786691742
0.793425929
0.786401515
0.791724455
0.788626747
0.786967067
0.791568733
0.783551863
0.792777648
0.783520205
0.783483387
0.78914901
0.785768193
0.790316964
0.71595212
0.718686223
0.720435025
0.721424953
0.723102863
0.723321733
0.725401631
0.724858112
0.727581302
0.726231051
0.729741166
0.727543088
0.731929028
0.728854461
0.734171354
0.730203355
0.736484867
0.731616305
0.738881949
0.733114643
0.741373808
0.734719235
0.74397297
0.736454001
0.746695675
0.738351265
0.749564823
0.740454219
0.752613142
0.742820911
0.755887949
0.745527546
0.759452132
0.748672076
0.763392191
0.752379764
0.767825865
0.756807855
0.77290902
0.762145098
0.778831674
0.768585211
0.785744899
0.776192271
0.793087752
0.786162164
0.796429207
0.789242383
0.795174253
0.789560848
0.794418601
0.790082661
0.793637739
0.790727022
0.792892952
0.790947375
0.791507154
0.791800762
0.789994657
0.792559671
0.788208174
0.793530357
0.786210229
0.793945252
0.784986025
0.793366227
0.784403723
0.791280212
0.78636412
0.786829381
0.790406774
0.781801156
0.793083274
0.780676198
0.788815862
0.787317039
0.784708928
0.78913342
0.785963941
0.788521878
0.71530621
0.71812165
0.719844411
0.72098088
0.722415142
0.72297085
0.724556433
0.724619982
0.726547915
0.726124296
0.728499692
0.727580534
0.730465802
0.729044053
0.732476496
0.730549656
0.734550629
0.732121689
0.736701525
0.733780075
0.738940427
0.735544653
0.74127911
0.737438899
0.74373239
0.739493504
0.746320911
0.7417499
0.749074359
0.744263593
0.752035217
0.747107251
0.755263406
0.750373885
0.758842634
0.754180406
0.762889395
0.758670373
0.767564305
0.764008981
0.773080595
0.770343123
0.779685723
0.777623272
0.787542942
0.786284894
0.792464736
0.790223008
0.792167772
0.790823894
0.791971677
0.790960655
0.791410327
0.791432127
0.790810537
0.791934332
0.789935714
0.792282207
0.789146315
0.792289921
0.7886113
0.79279952
0.788093103
0.793263484
0.787270589
0.792632809
0.787285085
0.790218695
0.788080407
0.786565853
0.78976858
0.781113724
0.791507716
0.781326293
0.785778053
0.785140714
0.782445605
0.78754798
0.783914317
0.787995123
0.718048049
0.720992035
0.722663157
0.724053213
0.725086098
0.726250924
0.726983315
0.728154958
0.728675499
0.729952021
0.73029226
0.731727038
0.731900154
0.733526347
0.73353763
0.735378656
0.735228884
0.737304343
0.736990822
0.739320659
0.73883734
0.741445386
0.740782534
0.743700019
0.742843669
0.746112936
0.74504429
0.748722626
0.747417562
0.751580764
0.750010128
0.754754921
0.752886664
0.758331103
0.756137356
0.76241624
0.759885941
0.767138748
0.764304285
0.772641781
0.769626856
0.779044176
0.776159918
0.786279878
0.784390309
0.793900051
0.791796179
0.79729517
0.792471957
0.797149914
0.792521068
0.796833867
0.792380865
0.796478887
0.792337037
0.795898224
0.791943449
0.795262562
0.791332234
0.794327068
0.791080707
0.792546977
0.791408527
0.790517145
0.791556957
0.788185856
0.791245564
0.786350865
0.790969953
0.783621735
0.789916899
0.781991607
0.787674814
0.782205985
0.783982508
0.785604501
0.781540569
0.787172941
0.784449657
0.786510823
0.718645549
0.721671987
0.723338037
0.724828443
0.725674913
0.727092607
0.727430283
0.729082726
0.728952868
0.730982394
0.730381846
0.732870128
0.731789269
0.734786938
0.733217099
0.736757436
0.734691866
0.738798668
0.73623222
0.740924769
0.737853628
0.743150137
0.73957195
0.745492216
0.741406706
0.74797438
0.743384425
0.750629078
0.74554219
0.753501146
0.747931296
0.756650411
0.750620835
0.760155711
0.753705083
0.764121754
0.757307504
0.768675017
0.76159571
0.773968452
0.766790665
0.780158127
0.773180464
0.787286584
0.781240627
0.794393067
0.790332163
0.798249863
0.791518811
0.79790792
0.791693621
0.797335319
0.791982161
0.796332644
0.792001301
0.795515771
0.79280208
0.794009549
0.793671437
0.792718269
0.794318854
0.791018403
0.794806714
0.788977834
0.795469021
0.786723116
0.794536392
0.785144103
0.792002248
0.784161568
0.78804556
0.784625534
0.787838291
0.781594473
0.78297726
0.784584295
0.779252865
0.785225434
0.782414923
0.786138977
0.722483675
0.725583249
0.727250746
0.72881623
0.729508023
0.731130035
0.731136671
0.73319058
0.732510288
0.735177956
0.73377639
0.737164838
0.735012215
0.739187611
0.736263462
0.741267458
0.737559648
0.743418637
0.738922143
0.745652538
0.740369268
0.74798025
0.741920191
0.750414753
0.743598434
0.75297326
0.745435384
0.755679978
0.747473824
0.758569332
0.749771334
0.761689665
0.752403343
0.765110002
0.755468956
0.768918014
0.759093038
0.773236818
0.763434038
0.778230637
0.768687488
0.784102952
0.775074532
0.791035127
0.782793091
0.798287903
0.792574438
0.802068273
0.795120334
0.801181035
0.795585395
0.800643158
0.796027747
0.799866519
0.796579829
0.798837604
0.796501556
0.796882168
0.796697221
0.794592856
0.797081629
0.791565581
0.797024284
0.788243575
0.796146752
0.784685303
0.795213908
0.781177047
0.792901527
0.780737697
0.788797614
0.783634528
0.781085229
0.784041974
0.781065174
0.785122188
0.77961987
0.78425843
0.782733876
0.784607419
0.725049845
0.728170171
0.729915604
0.731338584
0.732225829
0.733484254
0.733936801
0.735339566
0.735422373
0.737097703
0.736820515
0.73883868
0.738200786
0.74060383
0.739603703
0.742417678
0.74105555
0.744296796
0.742575809
0.746254321
0.74418179
0.748302875
0.745892151
0.750456992
0.74773014
0.752735579
0.749726838
0.75516462
0.75192442
0.757780149
0.754379223
0.76063149
0.757164672
0.763785141
0.76037468
0.767330062
0.764128198
0.771385867
0.768574161
0.776114791
0.773889362
0.781736248
0.780252417
0.788492549
0.787690217
0.796267038
0.796987203
0.801394727
0.800513034
0.801044127
0.800598292
0.800680738
0.800547853
0.799843096
0.799941243
0.798779347
0.79959525
0.797760999
0.799242541
0.796250864
0.798460782
0.794203658
0.797679586
0.790902627
0.797104072
0.787078489
0.795056427
0.784028597
0.792752467
0.782454116
0.789157769
0.782525698
0.782427167
0.781505151
0.778870947
0.783721885
0.777366337
0.782873145
0.780880097
0.78450093
0.730630279
0.733778096
0.735547331
0.736932828
0.737820647
0.739008431
0.739489571
0.740789248
0.740936883
0.742470829
0.742298779
0.744132753
0.743642878
0.745815821
0.745008281
0.747544118
0.746420303
0.749333848
0.747897771
0.751197844
0.749457559
0.753148497
0.751118091
0.755200235
0.752902607
0.757372088
0.754842515
0.759690946
0.756980594
0.76219477
0.759373762
0.764935376
0.762095426
0.767982797
0.765237296
0.771432845
0.768912714
0.77540074
0.773259626
0.780046464
0.778441532
0.78556912
0.784631339
0.792180852
0.791874489
0.799929926
0.800688271
0.804803464
0.805420487
0.804366901
0.805272358
0.803845578
0.805139655
0.803251193
0.80495395
0.801910854
0.804808307
0.800269409
0.80371434
0.797555079
0.802059848
0.793609578
0.800530885
0.789717303
0.798853883
0.78570313
0.796553398
0.783156157
0.793069761
0.78146456
0.788242313
0.781271894
0.778360328
0.787420034
0.776859222
0.782692724
0.778245724
0.781992577
0.781047486
0.782856115
0.732631326
0.735811641
0.737644507
0.738924354
0.739956438
0.740863767
0.741689424
0.74247727
0.743225726
0.743971435
0.744693354
0.745431715
0.746153549
0.746902654
0.747641146
0.748410596
0.749178753
0.749972943
0.750783489
0.751602944
0.752471066
0.753312795
0.754258966
0.755116138
0.756169504
0.757029423
0.758232956
0.759079782
0.760491943
0.761301447
0.763004856
0.76374364
0.765848928
0.766473765
0.769123331
0.769583296
0.772951049
0.773196064
0.777475985
0.777483841
0.782850151
0.782677128
0.789186986
0.789077074
0.796437051
0.797123291
0.804766963
0.803590742
0.809719732
0.803215935
0.809587577
0.80250183
0.809283648
0.801710213
0.808647303
0.800463617
0.80782959
0.798427581
0.806743641
0.796199372
0.805400337
0.793947233
0.803164419
0.790880085
0.800501412
0.788425731
0.796884714
0.785252951
0.791187225
0.783091248
0.784387831
0.781937894
0.779056906
0.781082153
0.776832806
0.781745072
0.775797841
0.779814996
0.779330662
0.783000183
0.74121174
0.744279994
0.746103418
0.747226684
0.748354646
0.748941415
0.750078799
0.750312067
0.7516435
0.751549286
0.753162844
0.752741568
0.754688989
0.753936208
0.756251155
0.755161902
0.757868553
0.75643815
0.759556155
0.757780297
0.761327998
0.759202867
0.763199683
0.760722321
0.76519077
0.762358935
0.767327425
0.76414455
0.769645901
0.766116167
0.772194929
0.768328915
0.775039037
0.770854739
0.778262042
0.773788606
0.781971299
0.777255476
0.786303651
0.781420557
0.791429329
0.786503414
0.797534445
0.792798119
0.804698018
0.800836686
0.812524306
0.808515123
0.817983837
0.80929218
0.817054285
0.809091193
0.8160891
0.808068059
0.815671615
0.806411771
0.814194028
0.80464487
0.811591678
0.8024163
0.808575363
0.799102507
0.804109202
0.795352549
0.799282784
0.791052813
0.794611601
0.785944667
0.788803886
0.781849175
0.784250166
0.779862106
0.777809406
0.785431796
0.773505706
0.781524676
0.776914835
0.780056678
0.77923143
0.781234716
0.74937917
0.752357994
0.754161452
0.755190154
0.7563335
0.756749492
0.758008145
0.757958997
0.759545692
0.759029987
0.761051509
0.760051344
0.762572187
0.761070963
0.76413364
0.76211731
0.765753061
0.763211534
0.767444254
0.764370274
0.76922041
0.765609721
0.771096214
0.766948567
0.77308994
0.768411131
0.775225922
0.77003056
0.777537469
0.771851323
0.780069956
0.773933159
0.782884132
0.776353694
0.786059213
0.779211993
0.789695977
0.782633877
0.793919443
0.786779219
0.798879321
0.791848561
0.804743803
0.798085088
0.811652166
0.805893983
0.819072833
0.813913111
0.824768214
0.814908438
0.824059891
0.813649475
0.822719532
0.812444883
0.820034345
0.810825866
0.817368397
0.807874222
0.814896242
0.804398793
0.810535674
0.800680876
0.806342632
0.796087267
0.800649826
0.791739614
0.794746304
0.787807237
0.787563582
0.78316376
0.781448624
0.781422217
0.775956297
0.781001663
0.773895438
0.779541326
0.773658718
0.778228044
0.777844814
0.781515045
0.760849259
0.763610584
0.765326464
0.766245063
0.767327775
0.767610729
0.768870311
0.768637289
0.770299576
0.769528545
0.77171048
0.770368947
0.773143781
0.771204369
0.774622323
0.772063052
0.77616194
0.77296684
0.777776164
0.773932062
0.779478333
0.774975712
0.781283384
0.776117559
0.783209501
0.777382971
0.785279994
0.778805987
0.787525444
0.78043259
0.789986145
0.78232397
0.792714432
0.784559921
0.795777489
0.787242762
0.799261866
0.790501096
0.803280506
0.794491257
0.807978701
0.799397162
0.813523213
0.805438397
0.82004828
0.812811745
0.827243645
0.82107027
0.832739994
0.822795333
0.832057534
0.820945968
0.830455008
0.81825336
0.828309487
0.816639939
0.824125734
0.813006734
0.820466221
0.808520428
0.81514281
0.802493924
0.80768036
0.797147781
0.800336157
0.791336346
0.792624732
0.78687538
0.786272525
0.782294185
0.778829759
0.780948671
0.777206546
0.784213307
0.772452942
0.780753485
0.775728368
0.777900452
0.777488426
0.779715308
0.776825246
0.779125096
0.780656009
0.781428736
0.78236215
0.782528545
0.783663403
0.783319436
0.784880807
0.783988157
0.786095188
0.784609649
0.787340372
0.785224881
0.788636298
0.785860297
0.78999806
0.786535406
0.791439506
0.787267263
0.792975168
0.788073434
0.79462158
0.788974609
0.796398859
0.789997257
0.798332179
0.791175425
0.800453188
0.792552277
0.802801697
0.794181639
0.805427039
0.796129169
0.80838898
0.798476084
0.811760503
0.801328106
0.815630951
0.804833839
0.820100573
0.809214941
0.825238542
0.814806254
0.830920083
0.821991761
0.836331097
0.829374373
0.841768491
0.831206128
0.840272151
0.829120868
0.837835814
0.825164208
0.834514258
0.818850124
0.828611299
0.815493226
0.821841554
0.811051279
0.814296053
0.805677101
0.806971061
0.799955064
0.79883947
0.794917252
0.790970671
0.788534265
0.783878516
0.783714129
0.779258523
0.781877955
0.775380528
0.78112265
0.773352176
0.780978261
0.774126039
0.777663887
0.776504934
0.780270571
0.795438667
0.797070258
0.798364365
0.798993096
0.79977559
0.799844995
0.80084657
0.800443798
0.801879333
0.800972225
0.802935987
0.801475663
0.804028742
0.801949173
0.805158032
0.802392548
0.806336344
0.80283021
0.807579862
0.80328679
0.808904852
0.803787683
0.810329984
0.804359388
0.811876687
0.805030601
0.813571877
0.805838951
0.815452076
0.806833838
0.817565774
0.808074086
0.819975041
0.809626307
0.822755645
0.811563786
0.825994379
0.813970478
0.829782501
0.81694879
0.834208391
0.820619647
0.839375861
0.825092192
0.845451806
0.830583887
0.852406362
0.837432558
0.856105873
0.840074281
0.852989284
0.837199841
0.847910483
0.831774273
0.842345677
0.82731309
0.835885068
0.821774424
0.826201705
0.8146146
0.818342095
0.806978465
0.808573801
0.799860337
0.799750021
0.792450607
0.790806065
0.78668374
0.782258977
0.783313891
0.778331804
0.783771774
0.77902397
0.787547436
0.77457253
0.782874446
0.776602209
0.778549536
0.776376182
0.778470339
0.804939551
0.806598922
0.807952664
0.808540014
0.809418927
0.809299523
0.810542746
0.809729919
0.811624829
0.810019629
0.812724722
0.810240381
0.813861742
0.810428543
0.815045764
0.810605099
0.816284898
0.810783882
0.817587828
0.810975877
0.818964635
0.811192604
0.820427388
0.811449433
0.821990589
0.811769608
0.823672352
0.812189669
0.825496973
0.812764893
0.827499729
0.813572647
0.829731052
0.814709157
0.832258162
0.816284111
0.835163605
0.818413896
0.838541692
0.821211626
0.842497658
0.824767609
0.847155505
0.829131058
0.852661266
0.834460615
0.858992753
0.841008362
0.864740331
0.843179795
0.862818463
0.839046626
0.854808156
0.83408422
0.844344243
0.827869279
0.836162956
0.820358865
0.827169726
0.812959722
0.816470238
0.805568703
0.806363289
0.797811189
0.796814712
0.79166823
0.788886257
0.78771495
0.782851667
0.786623864
0.779971647
0.787483072
0.778225909
0.78542151
0.780161766
0.786420525
0.777550308
0.779651493
0.776333501
0.779639358
0.806504382
0.80846393
0.809996962
0.810635727
0.811661104
0.811471182
0.812946612
0.811928895
0.814179643
0.812220771
0.815423049
0.81242836
0.816695659
0.812592415
0.818006193
0.812735181
0.819361356
0.812869389
0.820768393
0.813003247
0.822236034
0.81314397
0.823774918
0.813301081
0.825397813
0.813490447
0.827120066
0.813740384
0.828961874
0.814100977
0.830951734
0.814650585
0.833131137
0.815496618
0.83556107
0.816770925
0.838324106
0.818621303
0.841519821
0.821201387
0.845255054
0.824658271
0.849635335
0.829126865
0.854762092
0.834720869
0.860612537
0.841316544
0.865209568
0.844082986