/*--------------------------------*- C++ -*----------------------------------*\
| =========                 |                                                 |
| \\      /  F ield         | OpenFOAM: The Open Source CFD Toolbox           |
|  \\    /   O peration     | Version:  v2006                                 |
|   \\  /    A nd           | Website:  www.openfoam.com                      |
|    \\/     M anipulation  |                                                 |
\*---------------------------------------------------------------------------*/
FoamFile
{
    version     2.0;
    format      ascii;
    class       volScalarField;
    location    "0.0391000018";
    object      T;
}
// * * * * * * * * * * * * * * * * * * * * * * * * * * * * * * * * * * * * * //

dimensions      [0 0 0 1 0 0 0];


internalField   nonuniform List<scalar> 
14400
(
330.640114
328.320696
327.076712
325.983133
324.960848
323.977235
323.014651
322.061631
321.110178
320.153961
319.188184
318.208727
317.21242
316.196307
315.157978
314.094516
313.003714
311.884364
310.737862
309.566901
308.377919
307.179098
305.987194
304.835628
303.589775
300.439472
298.415756
296.727337
296.211549
295.943289
296.727349
297.471255
298.931928
299.99825
301.358307
301.134704
299.824113
299.29194
300.303369
299.913024
300.003433
299.936125
300.061183
299.947984
300.006107
299.951165
299.999073
299.960322
299.998834
299.940762
299.984899
299.94255
299.992555
299.931821
299.97474
299.929788
299.963004
299.927468
299.9638
299.942713
299.954139
299.993232
299.987209
299.977826
299.989835
300.01108
300.002869
300.031679
299.944263
300.010296
299.97992
299.954147
299.974389
299.956285
300.009341
299.996433
300.084503
300.214438
300.12313
299.993419
330.440755
329.236795
328.589063
328.001058
327.433189
326.868674
326.298951
325.719105
325.126093
324.517022
323.889261
323.23953
322.56499
321.861985
321.127334
320.356738
319.54665
318.691543
317.786895
316.825556
315.802128
314.707494
313.535518
312.274568
310.917518
309.449506
307.893885
306.264426
304.611722
302.963398
301.412185
299.976178
298.805961
297.56987
297.713757
299.046312
300.806993
300.074793
299.145284
299.538269
299.739893
299.550749
299.753753
299.511921
299.765943
299.493415
299.850423
299.494305
299.81161
299.558096
299.852106
299.593793
299.847785
299.640658
299.853085
299.696909
299.872452
299.772837
299.895039
299.816701
299.909375
299.854508
299.90903
299.94743
299.924797
299.977127
299.96193
299.995908
299.979741
300.05545
299.949346
300.048607
300.046099
300.025626
300.047174
299.922592
300.367079
299.98072
299.756297
299.867984
330.773689
329.68887
329.104999
328.575342
328.065908
327.5635
327.06159
326.556425
326.045202
325.525703
324.995592
324.452817
323.894847
323.319496
322.723753
322.105146
321.459907
320.785164
320.07608
319.329322
318.538614
317.700198
316.80592
315.851869
314.827593
313.730009
312.546491
311.277639
309.909799
308.453427
306.896768
305.273332
303.579304
301.907316
300.367014
299.336443
299.250726
299.634493
300.38579
299.508402
300.002754
299.635169
299.794276
299.797068
299.901227
299.744078
299.90904
299.754765
299.969134
299.799665
299.941312
299.82573
299.958409
299.895283
299.994203
299.932651
300.051577
299.93674
300.095994
299.999356
300.175874
300.009451
300.174552
300.041398
300.081159
300.065205
300.001935
300.080086
299.945611
300.062138
299.800611
299.985352
299.897633
300.00275
300.076863
300.081393
299.618107
299.764767
299.989435
299.981231
331.31131
330.27639
329.718052
329.211215
328.724656
328.246719
327.771838
327.296627
326.8186
326.33556
325.845535
325.34655
324.836746
324.31413
323.776759
323.222403
322.648821
322.053319
321.433145
320.784905
320.105143
319.389543
318.633775
317.83236
316.97996
316.06971
315.095281
314.04839
312.922293
311.708057
310.400813
308.994373
307.493386
305.907268
304.278645
302.68191
301.278113
300.155107
299.815303
300.285653
300.107181
300.241787
300.231489
300.019857
300.323902
300.074602
300.272351
300.157515
300.267533
300.128211
300.29785
300.172642
300.318661
300.153555
300.380819
300.191609
300.404419
300.244038
300.428066
300.289014
300.422509
300.273319
300.406275
300.302936
300.382206
300.36841
300.357691
300.32088
300.241633
300.251969
300.162734
300.263423
300.091865
300.149378
300.272971
300.129952
299.811821
300.119728
300.022174
299.942764
331.796304
330.803114
330.26523
329.776865
329.309173
328.851761
328.399629
327.949474
327.498798
327.045276
326.586979
326.121905
325.648442
325.1647
324.669213
324.159958
323.635419
323.093167
322.531448
321.94714
321.338106
320.700229
320.030894
319.324655
318.578387
317.784897
316.94062
316.036103
315.067685
314.023188
312.900051
311.683494
310.375823
308.962234
307.461471
305.869309
304.255336
302.64716
301.325772
300.39709
300.97645
300.58585
300.874916
300.543306
300.811887
300.689211
300.746663
300.700657
300.81036
300.727479
300.856322
300.708188
300.917662
300.724594
300.870774
300.692042
300.863218
300.689717
300.861197
300.706136
300.834651
300.715464
300.782191
300.749789
300.753809
300.776931
300.687727
300.730459
300.603616
300.7223
300.560273
300.492536
300.459086
300.448638
300.444377
300.361303
300.420674
300.184365
300.181807
300.002965
331.970232
331.005156
330.479878
330.003261
329.548329
329.105599
328.670278
328.23896
327.808933
327.377706
326.943233
326.503492
326.056909
325.601712
325.136604
324.659803
324.170088
323.665381
323.144356
322.604337
322.043742
321.458985
320.848136
320.206344
319.531319
318.816504
318.059332
317.250941
316.388762
315.460823
314.465334
313.386311
312.224912
310.960721
309.603901
308.131944
306.581705
304.94224
303.342332
301.857726
300.815491
300.918183
301.035253
300.943376
301.05226
300.951235
301.07996
300.934209
301.152627
300.930295
301.100311
300.965353
301.126811
301.041404
301.208957
301.047626
301.232712
301.122747
301.30688
301.173561
301.341868
301.230931
301.386536
301.253085
301.384015
301.228976
301.318332
301.301842
301.244917
301.245237
301.17438
301.187209
301.006686
300.979315
300.82374
300.653348
300.485561
300.372913
300.050175
299.958459
332.418266
331.456317
330.930095
330.453614
330.000967
329.563104
329.135045
328.71307
328.294073
327.87536
327.454658
327.029942
326.599542
326.161839
325.715531
325.259125
324.791461
324.310897
323.816221
323.30535
322.776858
322.227918
321.656773
321.059511
320.433992
319.774806
319.079467
318.340501
317.55525
316.713367
315.812502
314.838327
313.790123
312.648302
311.417459
310.072084
308.63277
307.071422
305.459468
303.788259
302.27577
301.336912
301.455393
301.462086
301.352582
301.534234
301.359798
301.498693
301.351038
301.618061
301.43503
301.624989
301.403708
301.604331
301.443165
301.630078
301.546638
301.658113
301.596067
301.654916
301.679875
301.674798
301.733921
301.702596
301.730792
301.728151
301.77103
301.704899
301.796601
301.615778
301.847628
301.585433
301.818619
301.654537
301.433988
301.503365
300.966623
300.715976
300.819818
300.365642
332.229964
331.240911
330.697154
330.206453
329.743136
329.297928
328.86534
328.440985
328.021329
327.603255
327.184329
326.762313
326.335547
325.902334
325.461487
325.011539
324.551525
324.079938
323.595825
323.09738
322.583472
322.051737
321.500701
320.927171
320.329185
319.702426
319.044329
318.349097
317.613454
316.829668
315.993682
315.095267
314.129735
313.083903
311.953419
310.722568
309.391485
307.945745
306.405868
304.775365
303.163156
301.645305
300.866353
301.203169
300.924137
301.03955
301.043966
300.989715
301.037052
300.98315
301.088659
300.980231
301.104624
301.04947
301.07452
301.222953
301.070291
301.259841
301.074322
301.317475
301.188953
301.349234
301.317848
301.314826
301.408282
301.395229
301.519113
301.475538
301.640357
301.453896
301.667234
301.600294
301.589346
301.695314
301.694504
301.494983
301.562823
301.505882
301.011535
300.322333
332.197473
331.168367
330.599653
330.088833
329.60989
329.152909
328.711484
328.280458
327.855706
327.433703
327.011769
326.587443
326.159043
325.724701
325.283394
324.833453
324.374293
323.904097
323.422584
322.927445
322.418638
321.892976
321.350675
320.787196
320.20315
319.59203
318.955153
318.283176
317.578677
316.828181
316.036578
315.184206
314.2801
313.295266
312.246724
311.091273
309.862615
308.496087
307.063649
305.46973
303.889831
302.181517
300.743934
300.677461
300.355196
300.725081
300.349343
300.806282
300.401026
300.808349
300.441226
300.872477
300.485659
300.855114
300.573032
300.810918
300.607101
300.829252
300.683854
300.865702
300.73332
300.875792
300.804393
300.866109
300.863416
300.872402
300.958486
300.804745
301.015898
300.906475
301.200853
301.006548
301.345105
301.273802
301.097826
301.672167
301.741706
301.570364
302.003064
301.031683
331.833543
330.776346
330.188529
329.663673
329.175332
328.71263
328.268079
327.835757
327.410923
326.989778
326.56928
326.14699
325.720905
325.289396
324.85104
324.404644
323.94904
323.483216
323.006008
322.516377
322.012948
321.494476
320.95917
320.405423
319.830821
319.23325
318.609464
317.956685
317.270593
316.547564
315.781924
314.968913
314.101107
313.172335
312.173121
311.095821
309.929365
308.666167
307.296994
305.822299
304.249353
302.620359
300.993058
300.204395
299.761817
300.085196
299.780607
300.0918
299.762027
300.099583
299.839769
300.146789
299.94176
300.140271
299.980751
300.211592
300.072101
300.230344
300.085127
300.295067
300.13433
300.311048
300.178545
300.362227
300.279071
300.385296
300.394758
300.44274
300.522284
300.402912
300.71021
300.481169
300.82628
300.454895
300.885577
300.584651
300.919238
301.260337
301.991452
301.145319
332.18095
331.114407
330.517495
329.98855
329.500606
329.041524
328.602717
328.177517
327.76075
327.348323
326.937079
326.524429
326.108399
325.687227
325.259622
324.824214
324.380082
323.925942
323.461033
322.9839
322.493783
321.988809
321.468108
320.929129
320.370818
319.78967
319.184427
318.550305
317.885886
317.184682
316.445217
315.658689
314.823739
313.92839
312.971907
311.938004
310.827926
309.620074
308.322288
306.908311
305.409746
303.804584
302.227048
300.696217
300.327257
300.421788
300.290789
300.492599
300.321486
300.440758
300.300343
300.527585
300.341893
300.574107
300.410246
300.542007
300.390882
300.544474
300.474235
300.591858
300.370686
300.648814
300.338096
300.670161
300.376421
300.603949
300.405992
300.496835
300.476198
300.379188
300.229455
300.271597
299.95545
300.444877
300.491879
300.390301
300.529143
300.068587
301.616477
301.507413
332.020742
330.930537
330.316876
329.778428
329.286597
328.827312
328.390592
327.968978
327.556787
327.149717
326.744383
326.338219
325.92908
325.515371
325.095585
324.668677
324.233399
323.788993
323.334182
322.868328
322.38986
321.898138
321.391022
320.867804
320.325451
319.763194
319.176718
318.565312
317.922862
317.249001
316.535042
315.781519
314.975945
314.120802
313.197868
312.213708
311.141064
309.995473
308.735604
307.398009
305.919614
304.394744
302.727625
301.200489
300.180383
300.135674
300.143091
300.157556
300.120679
300.186026
300.137085
300.169597
300.146211
300.278658
300.193414
300.226311
300.246462
300.349103
300.28696
300.382775
300.400863
300.496
300.508139
300.627808
300.560503
300.629611
300.531281
300.727112
300.603704
300.727102
300.78314
300.627652
301.307996
300.299271
300.265886
300.38005
300.551118
299.701854
300.654998
301.18927
332.213534
331.078066
330.436194
329.879423
329.376143
328.909675
328.468342
328.043797
327.629778
327.221706
326.815988
326.40996
326.001433
325.588749
325.170481
324.745483
324.312733
323.871273
323.420263
322.958683
322.485713
322.000031
321.500715
320.985885
320.454438
319.903632
319.332168
318.736063
318.113929
317.460002
316.773088
316.044803
315.274746
314.450547
313.573812
312.626005
311.613213
310.507488
309.324893
308.024315
306.643207
305.13233
303.575341
302.01738
300.748131
300.198632
300.411866
300.223689
300.38164
300.269949
300.406508
300.235073
300.437517
300.261437
300.447473
300.338376
300.506863
300.326417
300.458175
300.370339
300.501657
300.340754
300.498995
300.263575
300.409921
300.16292
300.436088
300.079751
300.459786
300.217536
300.246928
300.455398
299.477393
300.823233
300.76857
299.929073
301.359532
299.865156
300.037037
301.011721
331.87121
330.702431
330.038299
329.469689
328.961203
328.493061
328.05209
327.628977
327.21719
326.8117
326.409024
326.006102
325.601074
325.191783
324.77736
324.355948
323.927392
323.489688
323.043314
322.585702
322.118009
321.636624
321.143573
320.633589
320.109939
319.564861
319.003534
318.414497
317.80598
317.161013
316.492784
315.775934
315.03182
314.221961
313.381482
312.450716
311.488919
310.400955
309.290826
308.001276
306.726481
305.193887
303.805074
302.075895
300.795092
299.74113
300.205358
299.607007
300.232472
299.61135
300.288495
299.586485
300.332206
299.569356
300.350683
299.674608
300.288119
299.706633
300.37526
299.649084
300.344004
299.666196
300.393246
299.829583
300.406327
299.882634
300.292166
300.097138
300.027476
300.326706
299.542327
300.43178
300.137333
299.591727
300.495875
299.531779
300.84116
300.27116
299.816588
300.594464
332.324209
331.122513
330.437142
329.859059
329.347875
328.880364
328.441904
328.022255
327.614724
327.213814
326.816275
326.418571
326.019331
325.615739
325.20772
324.79243
324.370944
323.939762
323.501235
323.050526
322.591627
322.117504
321.634449
321.132043
320.619962
320.082697
319.53506
318.95392
318.362055
317.72481
317.077514
316.367781
315.651007
314.846887
314.043569
313.115547
312.206122
311.114025
310.080017
308.769318
307.608616
306.006797
304.792798
302.803225
301.921634
299.695113
300.959597
299.613403
300.966434
299.700383
300.981658
299.723295
300.936161
299.654497
300.83145
299.646039
300.816904
299.690077
300.707699
299.806302
300.676738
299.832186
300.551219
299.914278
300.316
300.072976
300.042801
300.165314
299.776969
300.374523
299.763226
300.223857
299.798265
299.971986
300.906749
298.899381
300.205624
300.539214
299.815405
300.507994
331.81771
330.586417
329.881697
329.297364
328.78658
328.322373
327.888754
327.474679
327.073292
326.678834
326.288088
325.897427
325.505494
325.109526
324.709343
324.302349
323.889293
323.467238
323.037838
322.597316
322.148381
321.685825
321.213743
320.724715
320.224804
319.703304
319.169179
318.606926
318.029941
317.415689
316.784448
316.103221
315.403101
314.635255
313.84799
312.967805
312.071327
311.045097
310.015191
308.798907
307.618902
306.15477
304.864032
303.056825
302.120256
299.49049
301.004439
298.867116
300.872052
298.816595
300.802728
298.978013
300.792253
299.196791
300.83725
299.389
300.649807
299.612922
300.580936
299.826616
300.422854
300.123574
300.095835
300.468813
299.900316
300.700613
299.647185
300.796008
299.501182
300.576013
299.922908
299.98449
300.591345
298.922864
300.385086
299.758202
299.3203
300.060132
299.741628
300.278654
332.21096
330.927657
330.19211
329.593035
329.075013
328.607027
328.17131
327.756238
327.354338
326.95997
326.569373
326.179412
325.787961
325.393172
324.99365
324.588328
324.176023
323.756248
323.327621
322.890206
322.442002
321.983736
321.512258
321.029242
320.529667
320.016692
319.482345
318.932267
318.353896
317.757114
317.12211
316.466074
315.757523
315.026404
314.22181
313.396278
312.465806
311.523504
310.427946
309.346647
308.037792
306.806683
305.247471
303.900294
302.287795
300.193996
300.829471
299.214846
301.051201
299.340983
300.999449
299.447118
300.858084
299.52461
300.614951
299.731116
300.516092
299.876343
300.238574
300.221354
299.873496
300.337422
299.610981
300.479912
299.379248
300.589474
299.314019
300.385075
299.587215
299.884008
300.197481
299.06682
300.913077
299.333623
300.288282
299.624161
299.575359
300.276307
299.590179
300.101933
331.829732
330.517916
329.764448
329.163104
328.648811
328.186922
327.758121
327.350564
326.956255
326.569884
326.18717
325.805581
325.422256
325.036267
324.645119
324.249129
323.845454
323.435681
323.015943
322.589399
322.150348
321.704111
321.242065
320.772667
320.282823
319.785665
319.26137
318.73018
318.16215
317.588533
316.963984
316.337096
315.638648
314.94504
314.149101
313.372915
312.447131
311.571553
310.470885
309.483969
308.144919
307.060581
305.392697
304.326338
302.188711
301.107965
300.165694
299.721816
300.133713
299.624252
300.043949
299.740451
300.0671
299.802446
300.026557
299.919175
299.972892
299.958444
299.898627
300.090315
299.874862
300.226954
299.777796
300.357313
299.74012
300.358259
299.80439
300.0926
299.911423
299.555414
300.143307
299.107271
299.799469
298.978136
299.375908
299.871764
298.899527
299.785304
299.565585
299.971657
332.328417
330.974973
330.197575
329.589833
329.075264
328.615553
328.189791
327.785948
327.395435
327.013262
326.634602
326.257468
325.878314
325.49698
325.110051
324.7189
324.31943
323.914682
323.49906
323.077739
322.64263
322.201843
321.743459
321.279796
320.793207
320.302167
319.780567
319.256036
318.689964
318.123791
317.500285
316.882006
316.183576
315.500307
314.703467
313.940115
313.012978
312.153624
311.052115
310.085468
308.746505
307.686773
306.010071
304.972547
302.709475
302.089377
299.877102
300.747746
299.677369
300.700719
299.702847
300.669544
299.760118
300.565481
299.740173
300.487534
299.824152
300.466241
299.951559
300.342969
300.033382
300.194268
300.198499
299.893982
300.369599
299.596571
300.403799
299.410621
300.463767
299.060485
300.445518
298.81269
301.045656
298.917858
299.491017
299.568545
299.1841
300.119686
299.465144
299.784556
332.176059
330.792561
329.998235
329.391095
328.882522
328.430578
328.013294
327.618239
327.236805
326.86384
326.494742
326.127254
325.75827
325.387117
325.011132
324.63079
324.243224
323.849989
323.447451
323.038405
322.617823
322.190111
321.74804
321.298248
320.830197
320.353744
319.853473
319.344007
318.802785
318.25162
317.657447
317.053085
316.389926
315.717781
314.964262
314.206075
313.333971
312.468099
311.439859
310.443654
309.208591
308.070722
306.553099
305.326741
303.331615
302.562178
299.859038
300.951424
299.499059
300.84734
299.568058
300.753077
299.651797
300.745189
299.938416
300.56257
300.033986
300.462797
300.151014
300.176299
300.419691
299.963328
300.648038
299.696343
300.886636
299.341485
300.927335
299.102758
300.647018
299.098647
300.153481
299.246014
298.97359
299.647642
299.151015
299.781918
298.351367
299.427865
299.350212
299.696454
332.447307
331.041297
330.234426
329.631575
329.131457
328.688919
328.281257
327.895664
327.523718
327.159954
326.800232
326.441726
326.082131
325.719764
325.353289
324.981498
324.603668
324.21865
323.826207
323.424902
323.014984
322.59436
322.16387
321.720296
321.265315
320.793936
320.309118
319.803184
319.281163
318.731322
318.16215
317.555723
316.926365
316.246466
315.540069
314.764052
313.959885
313.058258
312.13116
311.06514
309.987633
308.709577
307.458115
305.930386
304.48811
303.022695
300.832731
301.404088
300.014078
301.486111
300.034629
301.373237
300.115056
301.266163
300.097559
301.018589
300.242097
300.853382
300.458161
300.499169
300.637017
300.068056
300.915451
299.544929
300.922672
298.966128
300.949998
298.478042
300.856956
298.501511
300.44118
299.10272
300.417926
298.439485
298.99249
299.607503
298.852374
299.788484
299.269918
299.504651
332.551862
331.133369
330.319604
329.726206
329.238935
328.809709
328.41535
328.042787
327.683823
327.332838
326.986014
326.64028
326.293723
325.944277
325.591116
325.232459
324.868284
324.496602
324.118163
323.730317
323.334729
322.927547
322.511672
322.081333
321.641222
321.182635
320.71298
320.219137
319.712761
319.174069
318.62151
318.025092
317.414293
316.743098
316.059178
315.290609
314.515616
313.61907
312.732683
311.667322
310.649203
309.359934
308.203441
306.622728
305.389292
303.530551
301.903735
301.487169
300.606533
301.497333
300.559504
301.412264
300.498162
301.315403
300.691519
301.280278
300.872763
301.061532
300.810411
300.905743
300.860095
300.516275
300.905094
300.000781
300.941344
299.380843
300.912048
298.85806
300.772427
298.620158
300.384199
298.851426
298.122974
300.071629
298.302755
299.313025
298.345256
299.094071
299.060278
299.445943
332.797355
331.375181
330.559881
329.979828
329.508231
329.094723
328.715773
328.358265
328.014183
327.67793
327.345899
327.014962
326.683446
326.349129
326.011486
325.668459
325.320429
324.964975
324.603407
324.232435
323.854493
323.464823
323.06737
322.655105
322.234108
321.793982
321.343933
320.868657
320.381968
319.861548
319.328041
318.749086
318.155785
317.500867
316.831769
316.078573
315.314219
314.433807
313.552458
312.505509
311.487367
310.221005
309.062925
307.508105
306.276359
304.36305
302.937748
302.30748
301.148274
302.209371
301.173025
302.081405
301.218978
301.92273
301.264702
301.723638
301.164042
301.387333
301.296254
301.001285
301.25155
300.488972
301.207977
299.817277
301.195784
299.14897
301.098437
298.758459
300.863532
298.520111
300.248869
298.65405
299.634091
298.448263
298.577377
299.153868
298.491963
299.435366
299.020448
299.250073
332.813047
331.374583
330.551079
329.978899
329.518
329.115544
328.747628
328.400912
328.06761
327.741959
327.42069
327.100394
326.77985
326.456376
326.130087
325.798209
325.462065
325.118141
324.769153
324.410151
324.045698
323.66851
323.285761
322.88657
322.481951
322.055577
321.62422
321.163321
320.698492
320.192635
319.685323
319.120051
318.558786
317.91441
317.285324
316.535171
315.822454
314.930297
314.11753
313.034097
312.108415
310.765851
309.732772
308.035068
306.975549
304.721305
303.760548
302.09787
301.831298
302.041227
301.924162
301.885028
301.964788
301.709455
301.959744
301.55399
301.86634
301.387418
301.775426
300.893535
301.787958
300.533233
301.560455
300.064434
301.360438
299.636016
301.016969
299.071704
300.485401
298.927846
299.467066
298.631039
298.089259
300.079512
297.964359
299.110567
298.009994
298.699178
298.738692
299.222995
333.049053
331.670894
330.876998
330.341022
329.914189
329.543267
329.204871
328.886203
328.579871
328.28049
327.984925
327.690081
327.394641
327.096299
326.794824
326.487996
326.176465
325.8576
325.532976
325.199071
324.858604
324.506571
324.147248
323.773364
323.391395
322.990711
322.580926
322.146499
321.701918
321.22431
320.73548
320.20184
319.656527
319.049785
318.432625
317.730235
317.022468
316.194273
315.374201
314.378826
313.424941
312.203622
311.107379
309.567868
308.384861
306.304341
305.356989
303.260759
303.069515
302.831009
302.96972
302.866053
302.949027
302.691798
302.755314
302.467166
302.60463
302.196603
302.457175
301.755042
302.074896
301.266241
301.629631
300.743089
301.179832
300.028315
300.692498
299.284618
300.101872
298.663821
299.507854
298.464961
298.997279
298.073287
298.003887
298.92569
298.381642
298.985963
298.721476
299.023203
333.517073
332.189176
331.418168
330.91211
330.513752
330.169376
329.855898
329.560994
329.27753
329.000506
328.726813
328.45372
328.179719
327.902948
327.622738
327.337511
327.047142
326.749991
326.446378
326.134312
325.814568
325.48449
325.145393
324.793572
324.431051
324.052557
323.66111
323.249169
322.82126
322.366595
321.892068
321.382225
320.847789
320.266492
319.655235
318.981583
318.272372
317.479735
316.646608
315.701047
314.713721
313.570968
312.401893
310.996531
309.655893
307.822188
306.673278
304.547777
304.263209
303.790205
304.089831
303.626368
303.939426
303.439605
303.772529
303.288257
303.459029
302.736549
303.002681
302.226094
302.487281
301.591914
302.002015
300.957141
301.357434
300.203424
300.672575
299.587924
299.769808
298.769509
299.027907
298.652484
298.230616
299.855427
297.5619
298.605233
297.917659
298.523473
298.423474
298.997816
333.927503
332.711706
331.991108
331.533471
331.178751
330.874202
330.597809
330.338026
330.088373
329.844211
329.602835
329.361616
329.119351
328.874101
328.625492
328.371707
328.112978
327.847252
327.575328
327.294599
327.006498
326.707527
326.399879
326.078768
325.747324
325.399016
325.038102
324.655819
324.257716
323.832365
323.386621
322.906261
322.398955
321.84825
321.261076
320.620523
319.9297
319.174419
318.349888
317.447781
316.45364
315.363185
314.161398
312.827499
311.402402
309.742787
308.296251
306.290676
305.636429
305.006279
305.328993
304.70838
305.15302
304.334923
304.969727
304.111119
304.398361
303.489418
303.955102
302.772127
303.17698
301.915584
302.243418
301.011023
301.250968
300.2265
300.302678
299.54711
299.541007
298.734913
298.736455
298.527095
298.12385
298.050804
298.289783
298.836798
297.982659
298.633367
298.456452
298.828049
334.556235
333.560495
332.929719
332.545237
332.255021
332.008865
331.786562
331.577814
331.377139
331.180446
330.985631
330.790193
330.593383
330.393077
330.189382
329.979982
329.765771
329.543798
329.315866
329.077932
328.832977
328.575295
328.309474
328.027372
327.735829
327.423213
327.099683
326.748574
326.384946
325.984949
325.570799
325.108446
324.630696
324.088845
323.531243
322.888009
322.230314
321.457399
320.673932
319.73497
318.792948
317.643596
316.498513
315.097421
313.67899
311.999971
310.544217
308.472386
307.573823
306.669498
306.822818
306.107542
306.484447
305.587817
306.018712
304.54339
305.329107
303.892929
304.02332
303.109039
303.13169
302.402499
302.093228
301.584914
301.02525
300.744044
299.982709
299.817376
299.098576
299.137627
298.385139
298.806328
298.487756
299.653528
297.346996
298.6462
297.876703
298.219355
298.134921
298.78753
335.209857
334.515274
333.994851
333.681554
333.452408
333.260095
333.08547
332.918703
332.754894
332.591371
332.427421
332.26229
332.097193
331.931614
331.766033
331.598039
331.427962
331.252827
331.073799
330.886982
330.694474
330.490835
330.279769
330.053613
329.81845
329.562848
329.296456
329.001862
328.69472
328.348066
327.988353
327.572674
327.146329
326.639864
326.131078
325.506098
324.897493
324.118142
323.390481
322.409301
321.54106
320.291449
319.265042
317.641708
316.478649
314.27128
313.0255
310.264876
309.77529
308.133748
308.471506
307.348866
307.60876
306.422376
306.780923
305.64221
306.023162
304.637869
304.93436
303.68647
303.731313
302.584394
302.453663
301.50597
301.162506
300.500355
299.949601
299.623354
298.87221
299.282479
298.582214
299.055724
297.943939
298.751981
298.691986
299.196571
298.291303
298.870821
298.331423
298.696146
335.349471
334.647458
334.117689
333.803565
333.579027
333.394946
333.231898
333.080648
332.936302
332.795718
332.656969
332.518489
332.379319
332.238437
332.095277
331.949
331.799186
331.645012
331.486073
331.321441
331.150628
330.972486
330.786353
330.590698
330.384586
330.165837
329.933127
329.683215
329.414323
329.121583
328.802726
328.450793
328.063583
327.631092
327.152467
326.612858
326.015261
325.336319
324.588149
323.729728
322.797465
321.704243
320.561287
319.143273
317.792914
315.862989
314.398354
311.740674
310.840662
308.528565
309.453009
307.508406
308.396525
306.783851
307.306336
305.710903
306.214411
304.603858
304.945772
303.301957
303.428607
302.325413
302.057943
301.257648
300.691623
300.357822
299.587963
299.801273
298.815941
299.553029
298.019774
299.691211
299.004874
300.087889
298.098112
299.490444
298.652167
298.590134
298.014832
298.639919
335.566199
334.737964
334.14234
333.790679
333.538349
333.331482
333.148764
332.979982
332.819718
332.664505
332.512205
332.361182
332.210327
332.058733
331.90564
331.750526
331.592647
331.431751
331.266863
331.097997
330.92369
330.744295
330.557537
330.364254
330.160901
329.949031
329.723106
329.485706
329.228038
328.954464
328.651302
328.326101
327.957801
327.559818
327.099647
326.601779
326.015472
325.385422
324.630816
323.832643
322.859073
321.854468
320.601767
319.342386
317.749035
316.133165
314.228252
311.992946
310.764367
308.49893
309.566267
307.556622
308.675288
306.662965
307.601774
305.598335
306.162759
304.337439
304.922537
303.328305
303.441851
302.17151
301.923298
301.210949
300.438304
300.512792
299.318917
300.104338
298.629503
299.780981
298.68843
299.83547
298.621167
299.703552
299.491869
299.951065
299.354377
299.213269
298.519029
298.705819
335.271205
334.269502
333.59118
333.192012
332.903207
332.665484
332.455426
332.261652
332.078167
331.901012
331.727914
331.556954
331.387116
331.217274
331.046932
330.875328
330.702142
330.526809
330.348952
330.168137
329.983699
329.795358
329.601847
329.403144
329.196829
328.983444
328.758783
328.524232
328.272966
328.007537
327.71694
327.405812
327.056586
326.678156
326.242774
325.768166
325.210044
324.603739
323.876545
323.098605
322.145355
321.156218
319.906956
318.672296
317.04166
315.527489
313.471737
311.630038
309.889638
308.161799
308.374386
306.934179
307.550714
305.913442
306.669449
304.814522
305.510607
303.721009
304.250411
302.554745
302.688787
301.516985
301.401869
300.71277
300.318346
300.069111
299.327882
299.956733
298.744454
300.183149
298.707606
300.393038
299.530977
300.091135
298.735743
299.962663
299.316774
299.493542
298.294667
298.642287
335.1842
333.90011
333.096748
332.622232
332.273696
331.984471
331.728155
331.49159
331.267875
331.052236
330.842134
330.635145
330.430328
330.226136
330.02239
329.817885
329.612844
329.406146
329.198141
328.987702
328.774989
328.558916
328.339256
328.114911
327.885246
327.648926
327.40448
327.150435
326.883748
326.603004
326.302313
325.980775
325.627575
325.243692
324.81037
324.333792
323.782478
323.174221
322.456434
321.670281
320.727439
319.713979
318.478899
317.192512
315.589522
314.002663
311.98439
310.199672
308.525968
306.88154
307.386662
305.838022
306.6919
304.891432
305.712854
303.768368
304.659348
302.724159
303.521334
301.830502
302.200752
301.060174
300.947372
300.429952
299.735386
300.151321
298.930965
300.121782
298.586988
300.185963
298.644919
300.191348
298.484009
299.910468
299.601108
300.0268
299.869973
300.634265
299.148583
298.922592
334.51768
332.794476
331.798671
331.201051
330.754168
330.380465
330.048654
329.742883
329.454559
329.17791
328.909665
328.647096
328.388904
328.133634
327.880851
327.62972
327.380074
327.131449
326.883575
326.636201
326.388728
326.140981
325.891666
325.640796
325.385791
325.127246
324.860752
324.587844
324.301483
324.004615
323.686226
323.351262
322.982509
322.588077
322.141463
321.656905
321.094339