/*--------------------------------*- C++ -*----------------------------------*\
| =========                 |                                                 |
| \\      /  F ield         | OpenFOAM: The Open Source CFD Toolbox           |
|  \\    /   O peration     | Version:  v2006                                 |
|   \\  /    A nd           | Website:  www.openfoam.com                      |
|    \\/     M anipulation  |                                                 |
\*---------------------------------------------------------------------------*/
FoamFile
{
    version     2.0;
    format      ascii;
    class       volVectorField;
    location    "0.0391000018";
    object      U;
}
// * * * * * * * * * * * * * * * * * * * * * * * * * * * * * * * * * * * * * //

dimensions      [0 1 -1 0 0 0 0];


internalField   nonuniform List<vector> 
14400
(
(109.189065 -0.000648563702 0.0736493525)
(135.419948 4.45922738e-05 -0.00595008663)
(147.499227 -0.0011848566 0.134852305)
(157.292122 -0.000476410703 0.053606805)
(165.874734 -0.0017020087 0.193988563)
(173.689718 -0.000998776578 0.113353089)
(180.971935 -0.00223621321 0.255099027)
(187.866826 -0.00155167418 0.176610232)
(194.470564 -0.00281249815 0.321039796)
(200.85253 -0.00215712391 0.245898809)
(207.062038 -0.00345049571 0.394064955)
(213.136406 -0.00283253768 0.323219222)
(219.102732 -0.00416552333 0.475930371)
(224.981557 -0.00359073981 0.410041205)
(230.788992 -0.00496769168 0.567797868)
(236.538556 -0.00443830363 0.507124943)
(242.241141 -0.00585952934 0.66996788)
(247.895367 -0.00537225358 0.614154325)
(253.492712 -0.0068318013 0.78142872)
(259.008995 -0.00637526061 0.729220541)
(264.416516 -0.00785855988 0.899287043)
(269.663616 -0.00741080817 0.848185107)
(274.690942 -0.00889200259 1.01809153)
(279.326286 -0.00841725151 0.964102241)
(284.156685 -0.00985477497 1.12902792)
(293.285234 -0.00921969354 1.05629821)
(299.23943 -0.0103875375 1.19004408)
(303.051753 -0.00955655208 1.09457019)
(303.952236 -0.0105413491 1.20728219)
(303.14132 -0.0095305417 1.09135752)
(300.175711 -0.0103786246 1.18852487)
(296.477286 -0.00926236817 1.06048848)
(292.300642 -0.0100732994 1.15364706)
(288.443729 -0.00895780533 1.02508813)
(286.636869 -0.00983829436 1.12564644)
(289.432095 -0.00893216452 1.02166599)
(292.569752 -0.0099349648 1.13708192)
(292.050423 -0.00895198816 1.02448969)
(290.221118 -0.00977628277 1.11804665)
(291.256139 -0.00883227876 1.01064242)
(290.946559 -0.00964508651 1.10308197)
(291.03786 -0.00872005324 0.997144754)
(290.933266 -0.00947863582 1.08415652)
(291.074113 -0.00857339993 0.980320053)
(291.030129 -0.00924014055 1.05665053)
(291.104706 -0.00838482003 0.95875884)
(291.024471 -0.00889493153 1.01690738)
(290.968025 -0.0081540247 0.933821297)
(291.06508 -0.00834736765 0.957215764)
(291.052045 -0.00784464407 0.89990058)
(291.00307 -0.00764918858 0.877099414)
(291.076033 -0.00749003573 0.858476979)
(290.918911 -0.00665755092 0.762931189)
(291.164508 -0.00702708268 0.805239894)
(290.97523 -0.00537396799 0.615800877)
(291.157166 -0.006497657 0.744562337)
(290.987775 -0.00412863367 0.473090323)
(291.169604 -0.00588084135 0.673873068)
(290.903153 -0.00368221824 0.421936048)
(291.141333 -0.0050236546 0.575651226)
(290.91754 -0.00390165691 0.447083342)
(291.120477 -0.00299472207 0.343161273)
(290.93053 -0.00319280288 0.365859272)
(291.069623 -0.00198294853 0.227222898)
(290.941246 -0.00299487839 0.343178592)
(291.030171 -0.00115665514 0.132541116)
(290.937026 -0.00269050892 0.308299598)
(290.932552 -0.000950626988 0.108931911)
(290.881561 -0.00167407882 0.191833188)
(290.861754 -0.000458577095 0.0525487305)
(290.941075 -0.000111214011 0.012745274)
(290.887783 -0.000243259996 0.027874397)
(290.8974 1.36635704e-05 -0.00156608001)
(290.927645 6.06921085e-05 -0.00695534313)
(291.077762 -0.000141080475 0.0161660079)
(291.077295 0.00116377521 -0.133355171)
(291.046345 -0.000194946887 0.0223368503)
(290.842885 -0.00325319137 0.372777506)
(291.104705 -0.000997193412 0.114266871)
(291.3251 0.000926446634 -0.106160222)
(104.110919 -0.000206133943 0.0236208562)
(119.183943 0.000187443921 -0.0214802947)
(126.547323 -0.00024260696 0.0277979949)
(132.873468 0.000141962813 -0.0162698403)
(138.704057 -0.000296580681 0.0339819455)
(144.260838 7.95392924e-05 -0.00911687581)
(149.653809 -0.000369021604 0.042283915)
(154.942664 -3.37504518e-06 0.000386177305)
(160.163711 -0.000465353406 0.0533262342)
(165.345169 -0.000113625945 0.0130262733)
(170.511483 -0.000594058026 0.0680845093)
(175.686063 -0.000261073944 0.0299380476)
(180.889088 -0.000766840337 0.0879061512)
(186.139609 -0.000458993781 0.0526482127)
(191.455438 -0.000999224024 0.114574913)
(196.852856 -0.000724730395 0.0831493571)
(202.347582 -0.00131128585 0.150397032)
(207.955547 -0.00108045813 0.123991449)
(213.693793 -0.00172837298 0.198290237)
(219.577029 -0.00155353652 0.1783231)
(225.621437 -0.00228083907 0.261739545)
(231.83758 -0.00217515067 0.249711695)
(238.238262 -0.00300108243 0.344441072)
(244.825515 -0.00297467972 0.341498124)
(251.608081 -0.00391267077 0.449066045)
(258.56911 -0.00397402453 0.456164966)
(265.587933 -0.0051667733 0.592896395)
(272.50052 -0.00538237736 0.617642521)
(279.120823 -0.00674617669 0.773943664)
(285.209211 -0.00696002912 0.798463053)
(290.520363 -0.00831398386 0.953615214)
(294.773268 -0.00827127563 0.948704165)
(297.772254 -0.00936770841 1.07454558)
(299.737694 -0.0087881754 1.0087417)
(296.38594 -0.00945650867 1.08542038)
(291.479583 -0.00843280285 0.967908793)
(289.521051 -0.00920318558 1.05530608)
(292.957858 -0.00834888384 0.958194402)
(293.642126 -0.00923563525 1.06036659)
(292.694332 -0.00818941301 0.940067123)
(292.592057 -0.00914405349 1.04961439)
(292.865323 -0.00801043243 0.91980593)
(292.595525 -0.00902821778 1.03647221)
(292.852173 -0.00776539568 0.891908699)
(292.461112 -0.00889410657 1.02095402)
(292.8505 -0.00750723923 0.862050773)
(292.382594 -0.00873242256 1.00275296)
(292.94527 -0.00717181946 0.822610575)
(292.326151 -0.00848370751 0.971918047)
(292.651189 -0.0067864366 0.777009258)
(292.318192 -0.00817202801 0.936075329)
(292.497183 -0.0062440724 0.715416212)
(292.33114 -0.00776194458 0.889414938)
(292.287997 -0.0054750532 0.627356496)
(292.146795 -0.00736305055 0.843700345)
(292.206515 -0.00450394939 0.516099317)
(292.008122 -0.00686073038 0.786179248)
(292.035945 -0.00359302064 0.411724772)
(291.895374 -0.0061004513 0.699045044)
(291.967065 -0.00321210899 0.368071039)
(291.75152 -0.00533749559 0.611618584)
(291.755581 -0.00393628319 0.451055209)
(291.549611 -0.00351034059 0.402245918)
(291.550902 -0.00444465246 0.509306604)
(291.401974 -0.00422350505 0.483965858)
(291.332185 -0.0050365348 0.577128943)
(291.326006 -0.00388504421 0.445181885)
(291.177059 -0.00504484016 0.578078576)
(291.29763 -0.00266039425 0.304846966)
(291.061091 -0.00489052037 0.560399516)
(291.268023 -0.000126686173 0.0145169819)
(291.017549 -0.00103012756 0.11803973)
(291.090523 -0.000831878131 0.0953237344)
(291.079979 -0.000431191178 0.0494094246)
(290.917102 -0.00161750166 0.185347054)
(290.924282 -0.00220659162 0.252849939)
(290.769802 -0.00454288475 0.520565333)
(291.325413 0.00265823248 -0.304602077)
(291.385024 0.00205446731 -0.235418857)
(291.025571 -0.000566174402 0.0648768995)
(96.228585 -5.81130377e-05 0.00598592977)
(110.874576 2.54458739e-05 -0.00369102008)
(118.004545 -7.98870242e-05 0.00832950066)
(124.116369 3.19854658e-06 -0.00123327128)
(129.721051 -0.00010306377 0.0109048302)
(135.018729 -2.1929253e-05 0.00157170839)
(140.108688 -0.000129986307 0.0139195112)
(145.049281 -5.24662521e-05 0.00500372731)
(149.880273 -0.000163446123 0.0176889551)
(154.63244 -9.18366212e-05 0.00945228277)
(159.331533 -0.000207200251 0.0226413997)
(164.000267 -0.000144698285 0.0154499098)
(168.659408 -0.000266425905 0.0293695975)
(173.328309 -0.000217620885 0.0237485206)
(178.025716 -0.000348505623 0.0387192506)
(182.769632 -0.000319983424 0.0354244054)
(187.578379 -0.000464066463 0.0519100868)
(192.469648 -0.000465300619 0.0520291824)
(197.462116 -0.000628437216 0.0707040035)
(202.573362 -0.000673032826 0.0757992717)
(207.822446 -0.00086384797 0.0976532536)
(213.226091 -0.000971254764 0.109955242)
(218.802742 -0.00120238645 0.136436518)
(224.565899 -0.00140009813 0.159097328)
(230.530207 -0.00168966997 0.192283239)
(236.69969 -0.0020160068 0.229692406)
(243.076153 -0.00238946037 0.272493716)
(249.639493 -0.00289323931 0.330241571)
(256.36165 -0.00337295672 0.385214522)
(263.173387 -0.00409602062 0.468081016)
(269.98733 -0.00467505377 0.534449549)
(276.640696 -0.00561699606 0.642417835)
(282.930396 -0.00621196782 0.710653683)
(288.472706 -0.007277091 0.832781024)
(292.447132 -0.00772522393 0.884034777)
(294.156995 -0.00845885228 0.968242595)
(292.856483 -0.00805781387 0.922760727)
(291.60214 -0.00832574959 0.952559401)
(291.268401 -0.0078846303 0.90200938)
(292.527626 -0.0083160112 0.951255541)
(291.64209 -0.00775957475 0.887808011)
(292.176475 -0.00823358181 0.942282111)
(291.801682 -0.00754295493 0.862633318)
(292.121653 -0.00819130215 0.936561124)
(291.626415 -0.0072505417 0.828637157)
(292.077028 -0.00810683687 0.927167102)
(291.618547 -0.00693192895 0.792646472)
(292.083965 -0.00795650154 0.910789072)
(291.526341 -0.00662816182 0.759518813)
(291.995313 -0.00767607757 0.879663556)
(291.503178 -0.00611779999 0.700962649)
(291.922242 -0.00727506626 0.833562107)
(291.486601 -0.00552999794 0.633624737)
(291.71435 -0.00677558559 0.776395142)
(291.479668 -0.00484219964 0.554863294)
(291.555597 -0.0060178482 0.689567821)
(291.315676 -0.00444625522 0.509481262)
(291.51589 -0.00498574234 0.571313932)
(291.320372 -0.00452782914 0.518846558)
(291.214945 -0.00356820599 0.408880415)
(291.073628 -0.00487615275 0.558753239)
(291.049233 -0.0016667437 0.190989301)
(291.022335 -0.00476961068 0.546542453)
(291.030172 -0.00180285788 0.206587592)
(290.976604 -0.0038864245 0.445340614)
(290.905731 -0.00243734786 0.279290059)
(290.884696 -0.00366129 0.419549102)
(290.836572 -0.00182007962 0.208564505)
(290.872116 -0.00227063546 0.260188887)
(290.751038 -0.00279587576 0.320372719)
(290.853073 -0.000696036403 0.0797539428)
(290.846488 -0.00190102177 0.217837739)
(290.880947 -0.000555570337 0.0636640153)
(290.860276 -0.00062182615 0.071255832)
(290.722779 0.00224762646 -0.257552337)
(290.885638 -0.00221793158 0.25414971)
(291.225146 0.00567117556 -0.649850601)
(291.151603 0.00398952375 -0.457153098)
(290.902232 0.00055203487 -0.0632563354)
(291.072228 0.00055271885 -0.0633350025)
(90.0610189 -8.60514703e-05 0.0101289513)
(104.905901 7.33201392e-05 -0.00808948894)
(112.099932 -0.000102492804 0.0120785107)
(118.250817 5.64671255e-05 -0.00611749197)
(123.867512 -0.000119880346 0.0141076299)
(129.145983 3.8201184e-05 -0.00398974223)
(134.184117 -0.000139512771 0.0163907633)
(139.041947 1.67965609e-05 -0.00150404513)
(143.761796 -0.000163346015 0.0191545007)
(148.377255 -9.93310544e-06 0.00159130565)
(152.915594 -0.000193867828 0.0226844419)
(157.400565 -4.47932341e-05 0.00561894978)
(161.852339 -0.000234374805 0.0273583433)
(166.289608 -9.16460959e-05 0.0110195873)
(170.728927 -0.000289440679 0.0337008789)
(175.186759 -0.000155837801 0.0184081137)
(179.678388 -0.000365626487 0.0424642639)
(184.219974 -0.000245243654 0.0286873051)
(188.826989 -0.000472536806 0.0547513645)
(193.516381 -0.00037141662 0.0431840568)
(198.304436 -0.000624397146 0.0721937953)
(203.209191 -0.000551510546 0.0638641119)
(208.247564 -0.000842284915 0.097208036)
(213.438199 -0.000810834681 0.093631629)
(218.797466 -0.00115716708 0.133347733)
(224.342866 -0.00118635284 0.136724749)
(230.087028 -0.0016137941 0.185739814)
(236.0417 -0.00173045001 0.199146082)
(242.20796 -0.00227371154 0.261442019)
(248.580521 -0.00251206243 0.288804103)
(255.130519 -0.00321278805 0.369152628)
(261.808653 -0.00360750436 0.414440975)
(268.512007 -0.00450007079 0.516783286)
(275.077918 -0.00505997829 0.581011613)
(281.210855 -0.00612357262 0.7029499)
(286.492262 -0.0067192469 0.771246547)
(290.334952 -0.00766094783 0.879249325)
(292.440819 -0.00772676894 0.886623206)
(292.599798 -0.00811078681 0.9310432)
(291.210912 -0.00765343684 0.878042501)
(292.073675 -0.00807205253 0.926637879)
(291.771995 -0.00758672687 0.870788174)
(291.744652 -0.00804802703 0.92328315)
(291.870219 -0.0075004222 0.861128996)
(291.631769 -0.00804720557 0.923851968)
(291.652314 -0.0073313233 0.841577638)
(291.601251 -0.00808802093 0.927412935)
(291.473782 -0.00713929242 0.817241367)
(291.641666 -0.00820035581 0.938584753)
(291.574521 -0.00692411874 0.793215825)
(291.564581 -0.00833653416 0.955224848)
(291.45775 -0.00675050002 0.773489596)
(291.378027 -0.0084903091 0.972868182)
(291.445669 -0.00659601746 0.755827275)
(291.194 -0.00846165276 0.969626026)
(291.295551 -0.00625197726 0.716405047)
(291.103443 -0.00808206969 0.926095556)
(291.128794 -0.00549783822 0.629988655)
(290.876485 -0.00754586146 0.864670441)
(290.978717 -0.00506176191 0.580020823)
(290.744583 -0.0065948669 0.755696703)
(290.841086 -0.00473111857 0.542131335)
(290.647289 -0.0062946233 0.721290147)
(290.654555 -0.00517873979 0.593425198)
(290.507445 -0.00453388579 0.519533005)
(290.42955 -0.00342077232 0.391982102)
(290.475205 -0.00343134052 0.393189208)
(290.31069 -0.00285847241 0.327541776)
(290.479022 -0.00211203992 0.242015982)
(290.32036 -0.00349902353 0.400944004)
(290.60445 -0.00288948008 0.331098328)
(290.427077 -0.00392479427 0.449739159)
(290.606376 -0.00195839344 0.22440901)
(290.713592 -0.00209616192 0.240194779)
(290.341172 -0.0022567596 0.258599588)
(290.857377 0.000372570474 -0.0426920523)
(290.99062 -0.00164536082 0.188537217)
(290.788796 -0.00136966503 0.15694745)
(291.141045 -9.54030338e-05 0.0109322583)
(291.078628 -0.00121877592 0.139657854)
(84.4927317 -8.54579676e-05 0.00919028832)
(99.5842416 6.22974918e-05 -0.00784849864)
(106.871021 -9.7373648e-05 0.0103964115)
(113.080491 5.11612116e-05 -0.00666779026)
(118.722741 -0.000108532488 0.0115915832)
(123.992304 3.98863306e-05 -0.00545240953)
(128.9894 -0.000120655653 0.0129088866)
(133.778574 2.71198757e-05 -0.00405787955)
(138.407115 -0.00013522238 0.0145124258)
(142.912568 1.13711333e-05 -0.00231690583)
(147.325218 -0.000153971155 0.0165988518)
(151.670368 -9.161374e-06 -2.43269164e-05)
(155.969121 -0.000179120124 0.0194222028)
(160.239814 -3.68597584e-05 0.00309315655)
(164.498571 -0.00021371538 0.023332259)
(168.760236 -7.5075775e-05 0.00742056875)
(173.038948 -0.000262124353 0.0288295609)
(177.348469 -0.00012871874 0.0135189673)
(181.702997 -0.000330753408 0.0366472422)
(186.11671 -0.000205047431 0.0222224238)
(190.6051 -0.000429047698 0.0478734048)
(195.183407 -0.000314927226 0.0347832134)
(199.868924 -0.000571097622 0.0641300352)
(204.67783 -0.000474766188 0.0530842071)
(209.629082 -0.000778036169 0.0878359027)
(214.738806 -0.000709127595 0.0799402207)
(220.026624 -0.00108095397 0.122556513)
(225.506082 -0.00105416103 0.119495902)
(231.194512 -0.00152475561 0.173443348)
(237.096683 -0.00156138214 0.177661055)
(243.219737 -0.00217149164 0.247602279)
(249.544606 -0.00229915258 0.262258477)
(256.048202 -0.00309751291 0.353773861)
(262.651288 -0.00334075501 0.381685463)
(269.252153 -0.00436447381 0.499035873)
(275.629272 -0.0047014485 0.537699626)
(281.513681 -0.00589471854 0.674495417)
(286.425767 -0.00611084936 0.699337241)
(289.862556 -0.00716534293 0.820417256)
(290.845537 -0.00675208246 0.773246978)
(289.803904 -0.00715986156 0.818867786)
(290.406146 -0.00643255946 0.735710205)
(290.056864 -0.0069862221 0.799132666)
(290.189191 -0.00607660741 0.694650752)
(290.17564 -0.00681542827 0.780059566)
(290.042365 -0.00558139818 0.637201464)
(290.197364 -0.00656391028 0.750624808)
(289.9443 -0.00494133533 0.566671636)
(289.978147 -0.00619657334 0.712764597)
(289.840419 -0.00432778564 0.497954159)
(289.831941 -0.0058934416 0.676267261)
(289.824117 -0.00357431726 0.409876949)
(289.636048 -0.00560198095 0.641991785)
(289.822568 -0.00272090829 0.311786352)
(289.581362 -0.00556578586 0.637784699)
(289.841266 -0.00196496098 0.225178565)
(289.432589 -0.00545438781 0.625028393)
(289.650144 -0.0014151061 0.162153423)
(289.330668 -0.00502441538 0.575740439)
(289.460703 -0.000781092362 0.0895053212)
(289.206371 -0.00380767254 0.436313765)
(289.428565 6.3511312e-05 -0.00728091207)
(289.032497 -0.00248594933 0.28486297)
(289.160275 0.000201039678 -0.0230352997)
(288.985108 -0.00227514472 0.26070561)
(289.165201 0.000305848 -0.0350448957)
(288.941144 -0.00214722958 0.246049387)
(289.016395 -0.000295049544 0.033807731)
(289.063799 -0.00224833223 0.257626076)
(289.000773 -0.00283168246 0.324478823)
(289.254752 -0.00271601402 0.311229249)
(289.297757 -0.00338067397 0.387386103)
(289.442004 -0.00210433051 0.241131279)
(289.556713 -0.00433291527 0.496503887)
(289.936395 -0.00317855781 0.364225996)
(290.035675 0.00125243425 -0.143515733)
(290.344014 -0.00272906762 0.31271828)
(290.720589 9.43381108e-05 -0.0108110619)
(290.66042 0.000364248397 -0.0417385364)
(290.948602 0.00130013711 -0.148980899)
(79.7864689 1.46314353e-07 8.91030258e-05)
(95.2100548 -9.12293898e-06 0.00117206568)
(102.634514 -8.90963637e-06 0.00115783334)
(108.933341 -1.77713426e-05 0.0021821208)
(114.622665 -1.74579812e-05 0.00215437217)
(119.899697 -2.62371457e-05 0.00316812236)
(124.870856 -2.65789557e-05 0.00321479902)
(129.607475 -3.56947916e-05 0.00426674992)
(134.163323 -3.75474899e-05 0.00448639821)
(138.580382 -4.73595446e-05 0.00561816801)
(142.892513 -5.17744906e-05 0.00613164444)
(147.126637 -6.26289096e-05 0.00738325973)
(151.30531 -7.10192996e-05 0.00835289437)
(155.446682 -8.33133381e-05 0.00977033501)
(159.567132 -9.76674724e-05 0.0114244849)
(163.680154 -0.00011193259 0.0130692359)
(167.799504 -0.000135105515 0.0157357415)
(171.936783 -0.000152137129 0.0176997813)
(176.105598 -0.000188271706 0.0218543155)
(180.317421 -0.000209348722 0.0242851903)
(184.587394 -0.00026449688 0.030622205)
(188.927742 -0.000291744622 0.0337643076)
(193.35617 -0.000374770555 0.0433002227)
(197.885721 -0.000411725551 0.0475592602)
(202.537159 -0.000535596578 0.0617802272)
(207.323554 -0.00058803708 0.0678184458)
(212.268809 -0.000771616191 0.0888860633)
(217.384085 -0.000848707687 0.0977539795)
(222.695764 -0.0011191244 0.128777657)
(228.208843 -0.00123477543 0.142070437)
(233.949488 -0.00163008761 0.187413954)
(239.906819 -0.00180381411 0.20737194)
(246.09856 -0.00237434717 0.272806857)
(252.475256 -0.00262911402 0.302066241)
(259.024389 -0.00343115679 0.394044394)
(265.604601 -0.00377908463 0.433992227)
(272.121551 -0.0048413098 0.555793407)
(278.217464 -0.00522760318 0.600140433)
(283.606158 -0.00644801912 0.740088173)
(287.359438 -0.00658917347 0.756536866)
(289.106055 -0.00744736761 0.855353899)
(288.354821 -0.00664966062 0.763614231)
(288.491876 -0.00741738057 0.852251118)
(288.26413 -0.00643389901 0.739778575)
(288.612652 -0.00738495934 0.849064247)
(288.300405 -0.00617691263 0.710595971)
(288.583591 -0.00728312001 0.837154877)
(288.239515 -0.00597395439 0.684381066)
(288.293623 -0.00717869453 0.819844968)
(288.263462 -0.00561988827 0.642142775)
(288.376824 -0.00710879699 0.814033122)
(288.178002 -0.00518765109 0.594431279)
(288.262978 -0.00704763227 0.807651008)
(287.883085 -0.00447391159 0.512700348)
(288.052651 -0.00699499889 0.801564472)
(287.842463 -0.00372607726 0.426977153)
(288.109799 -0.00710526086 0.814184285)
(287.752936 -0.00292397797 0.335054341)
(288.052044 -0.00719459125 0.824412745)
(287.825853 -0.00229840974 0.263370635)
(288.03339 -0.00673745299 0.772033123)
(287.709002 -0.00246056022 0.281951867)
(287.807367 -0.00708334533 0.811671543)
(287.652021 -0.00292332116 0.334979198)
(287.58967 -0.00621416177 0.712071088)
(287.480616 -0.00312531305 0.358127306)
(287.555873 -0.00535191693 0.613265634)
(287.528389 -0.00325412824 0.372888745)
(287.470328 -0.0044630611 0.511421906)
(287.67775 -0.00503368968 0.576809991)
(287.48068 -0.004271907 0.489512848)
(287.718938 -0.00611578245 0.700795984)
(287.976944 -0.00404998857 0.464082248)
(288.132692 -0.0060934354 0.698238968)
(288.4217 -0.00573823453 0.657537954)
(288.977027 -0.0058191359 0.6668073)
(289.390486 -0.0057561469 0.659590481)
(289.825835 -0.00240227365 0.275272935)
(290.593602 0.000163416922 -0.0187267195)
(291.011196 -0.00105727286 0.121150966)
(76.5696117 0.000112798942 -0.0136182538)
(92.4834965 -0.000134589269 0.0145863374)
(100.123333 0.000104827115 -0.0129175514)
(106.568727 -0.000140928094 0.0151845613)
(112.349103 9.92036186e-05 -0.012384536)
(117.670099 -0.000146021875 0.0156671455)
(122.648508 9.41289352e-05 -0.011896649)
(127.365118 -0.000150969502 0.0161455809)
(131.881158 8.85976737e-05 -0.0113475555)
(136.243839 -0.000156612365 0.01671083)
(140.490351 8.17231315e-05 -0.0106386538)
(144.649902 -0.000163772642 0.0174535364)
(148.745884 7.246521e-05 -0.00965507071)
(152.797333 -0.000173461104 0.0184864835)
(156.819912 5.94505605e-05 -0.00824093167)
(160.827453 -0.000187073729 0.0199688125)
(164.831733 4.06844741e-05 -0.00616865083)
(168.844686 -0.000206703334 0.0221394656)
(172.876694 1.31607788e-05 -0.00309333771)
(176.940096 -0.000235573669 0.0253695166)
(181.045426 -2.7756549e-05 0.00151931797)
(185.20706 -0.000278787413 0.0302463851)
(189.436434 -8.93790593e-05 0.00850763197)
(193.751055 -0.000344533299 0.0377070017)
(198.163239 -0.000183211616 0.0191873218)
(202.694306 -0.000445823601 0.0492412863)
(207.356586 -0.000327198601 0.0356153927)
(212.175577 -0.000603000753 0.0671922581)
(217.161631 -0.000548769603 0.0609636657)
(222.344294 -0.000847249861 0.0951746242)
(227.727661 -0.000889617967 0.100016827)
(233.343526 -0.00122622332 0.138594341)
(239.179829 -0.00141078403 0.15970399)
(245.264012 -0.00180686919 0.20505705)
(251.544724 -0.00219266613 0.249231538)
(258.025972 -0.00266945988 0.303839582)
(264.561366 -0.00331878702 0.378219461)
(271.081094 -0.00387144456 0.441531945)
(277.199643 -0.00479786578 0.547687657)
(282.648557 -0.00529588855 0.604852001)
(286.503478 -0.00626442539 0.715964454)
(287.845186 -0.00620297723 0.708666568)
(287.566233 -0.00646354443 0.738847561)
(287.628405 -0.00589519418 0.672977592)
(287.616699 -0.00648695754 0.740432232)
(287.681544 -0.00556795147 0.636013279)
(287.423738 -0.00646334031 0.738417309)
(287.607356 -0.00516541031 0.592516458)
(287.425541 -0.0062690562 0.719823568)
(287.184964 -0.00464118306 0.532606811)
(287.248267 -0.00612019382 0.701649546)
(287.176633 -0.00420181499 0.481600192)
(287.412608 -0.005823515 0.667412488)
(287.248912 -0.00367606686 0.421270734)
(287.271082 -0.00521956534 0.598076718)
(287.220341 -0.00295152037 0.338205903)
(286.970519 -0.00464656823 0.532462717)
(287.046609 -0.00237181225 0.27178552)
(286.630114 -0.00385654463 0.441912193)
(286.852731 -0.000972414507 0.111425242)
(286.425034 -0.00364405314 0.417569789)
(286.530852 -1.73478484e-05 0.00199117126)
(286.321205 -0.00444212068 0.509016347)
(286.394019 -0.000399322339 0.0457569832)
(286.278749 -0.00351656846 0.402959073)
(286.229333 0.000369997056 -0.0423986811)
(286.155857 -0.0042288266 0.484575143)
(286.088281 -0.00204721118 0.234594569)
(286.126621 -0.00543370088 0.62264501)
(285.981761 -0.00410339513 0.470207097)
(285.892021 -0.00657047682 0.752908225)
(286.243359 -0.00751775726 0.861445819)
(286.17749 -0.00546524551 0.626254424)
(286.430504 -0.00928973876 1.06449995)
(287.045437 -0.00758852984 0.869556289)
(287.037914 -0.00818878164 0.938340033)
(287.795239 -0.00612508371 0.701866757)
(288.797551 -0.00303483609 0.347759931)
(289.098727 -0.00291459656 0.333979484)
(290.285669 -0.000327208587 0.0374944099)
(74.8066523 -0.000211457665 0.024480898)
(91.445514 0.000209016137 -0.0236459483)
(99.4128617 -0.000215167683 0.0249883077)
(106.089616 0.000206221228 -0.023274774)
(112.028501 -0.000217174569 0.025262936)
(117.451966 0.000204862058 -0.0230778551)
(122.491399 -0.000218291534 0.0254295115)
(127.240348 0.000204098383 -0.0229533937)
(131.768036 -0.00021921801 0.0255713597)
(136.128042 0.000203408696 -0.0228399326)
(140.360658 -0.000220458401 0.025746956)
(144.497971 0.000202399797 -0.0226903809)
(148.56416 -0.000222484137 0.026014357)
(152.579376 0.000200645699 -0.0224520501)
(156.558998 -0.000225944258 0.0264496712)
(160.51687 0.000197477496 -0.0220494712)
(164.464002 -0.000231861342 0.0271669862)
(168.411396 0.000191818612 -0.0213622274)
(172.368529 -0.000241822208 0.0283475835)
(176.345814 0.000181946247 -0.0201889537)
(180.353117 -0.000258378318 0.0302883766)
(184.401751 0.000164861482 -0.0181859927)
(188.503272 -0.000285836603 0.0334833093)
(192.67077 0.000135447635 -0.014763747)
(196.918269 -0.000331392823 0.0387574881)
(201.26094 8.49797237e-05 -0.00891711867)
(205.715562 -0.000406825547 0.0474814854)
(210.299123 -1.0437394e-06 0.00104180459)
(215.030963 -0.000531593716 0.0619007694)
(219.928829 -0.000146665964 0.0178870345)
(225.013582 -0.000737243532 0.0856185624)
(230.300806 -0.000391203426 0.0460467644)
(235.809189 -0.00107271786 0.124239802)
(241.544855 -0.000792818787 0.0922783269)
(247.514053 -0.00160862545 0.185950075)
(253.694263 -0.00143319861 0.16600293)
(260.051963 -0.00243781235 0.281360573)
(266.485877 -0.00240391379 0.277672934)
(272.851301 -0.00363891516 0.419442923)
(278.833759 -0.00372325192 0.429310168)
(284.006129 -0.00511182571 0.588780728)
(287.403133 -0.00501797361 0.577995025)
(288.8449 -0.0059426024 0.683780444)
(287.960915 -0.00497159833 0.572805561)
(288.724658 -0.00585016659 0.672541295)
(288.132203 -0.00485233942 0.559369428)
(288.648948 -0.00584152465 0.670050284)
(288.387293 -0.00479377233 0.547475125)
(288.534532 -0.00579251171 0.662211411)
(288.255603 -0.00467786622 0.535712107)
(288.312905 -0.00542313506 0.62143753)
(288.136794 -0.00454608932 0.520987237)
(288.246986 -0.00513908467 0.588909707)
(287.857014 -0.00468052207 0.536342637)
(288.184539 -0.00493421798 0.565380527)
(287.36479 -0.0048871178 0.559998001)
(287.933904 -0.00458400055 0.525267361)
(287.312548 -0.0044625727 0.511353743)
(287.856191 -0.00415546083 0.476171474)
(287.289095 -0.00406225645 0.46549151)
(287.416877 -0.00454216596 0.520483958)
(287.126739 -0.00274198146 0.314206612)
(287.309277 -0.0041560514 0.476238226)
(286.989115 -0.00247834591 0.283987617)
(287.06593 -0.0034744263 0.398129168)
(286.978086 -0.00445046394 0.5099714)
(286.673778 -0.00384003884 0.440031678)
(286.789111 -0.00575725838 0.659729448)
(286.42031 -0.00391332541 0.448427732)
(286.734721 -0.00574781094 0.65863189)
(286.168008 -0.00399344672 0.457596005)
(286.2831 -0.00764873562 0.876459468)
(285.97541 -0.00626060883 0.717398285)
(286.030195 -0.0079041232 0.905724476)
(286.055447 -0.0098465155 1.12830284)
(286.317812 -0.0109175622 1.25103185)
(286.413771 -0.0103924687 1.19086007)
(286.843645 -0.0128080404 1.46765599)
(287.932706 -0.00758966148 0.869689316)
(290.051648 -0.00363932155 0.417024957)
(73.6145597 0.000163239799 -0.0196847613)
(91.092057 -0.000189285867 0.0204787079)
(99.4411433 0.0001563443 -0.0192387033)
(106.382649 -0.000193634344 0.0207714097)
(112.502486 0.000153007443 -0.0190329241)
(118.045574 -0.000195944884 0.0208771589)
(123.163334 0.000150756121 -0.0189216128)
(127.962193 -0.000197328883 0.0208979928)
(132.521465 0.000148689166 -0.0188160549)
(136.899568 -0.000198292269 0.0208814927)
(141.141602 0.000146205542 -0.0186547934)
(145.280856 -0.000199099785 0.0208533234)
(149.344149 0.000142726211 -0.0183754397)
(153.351116 -0.000199978924 0.0208347871)
(157.318883 0.000137509235 -0.0178972564)
(161.259784 -0.000201195987 0.0208533932)
(165.186153 0.000129529482 -0.0171049086)
(169.106712 -0.000203157508 0.0209539581)
(173.032037 0.000117255812 -0.0158262391)
(176.969513 -0.000206618107 0.0212167331)
(180.930009 9.83183926e-05 -0.0137967277)
(184.921016 -0.000212913119 0.0217902987)
(188.955165 6.90637673e-05 -0.0105996757)
(193.040888 -0.00022447464 0.0229520316)
(197.193642 2.36588957e-05 -0.00556500661)
(201.42305 -0.000245761687 0.0252164256)
(205.748166 -4.74083194e-05 0.00239931033)
(210.17944 -0.000284969463 0.029521383)
(214.740124 -0.000159584486 0.0150618744)
(219.440359 -0.000356599423 0.037523673)
(224.307944 -0.000338515277 0.0353429237)
(229.350055 -0.000485505024 0.0520927466)
(234.598404 -0.000624116048 0.0678546258)
(240.050739 -0.000713417753 0.0779874795)
(245.738562 -0.00107994889 0.119878659)
(251.634235 -0.00110313857 0.12248671)
(257.754789 -0.00179297815 0.201497694)
(264.006719 -0.00173860836 0.19529836)
(270.350714 -0.00285925091 0.323852335)
(276.52244 -0.00268246477 0.303775266)
(282.305927 -0.00429235958 0.488739737)
(286.987919 -0.00378381433 0.430893445)
(289.937705 -0.00559145921 0.638802377)
(290.194542 -0.00412340649 0.47040019)
(290.031105 -0.00550673104 0.629977714)
(289.962166 -0.00376367618 0.429558437)
(289.751705 -0.00546182758 0.625591376)
(290.019616 -0.00321257239 0.370043672)
(289.778029 -0.00561876145 0.647138383)
(290.112489 -0.00245922212 0.283585674)
(289.690177 -0.00579575714 0.66469026)
(289.870837 -0.00163243635 0.187185092)
(289.605315 -0.0059322559 0.679715919)
(289.76011 -0.000970740168 0.11122012)
(289.513018 -0.0056724656 0.649998714)
(289.727872 -0.000413533979 0.0473712248)
(289.680305 -0.00510062624 0.5844674)
(289.517506 -0.000711564964 0.0815438805)
(289.392847 -0.00483517699 0.554058221)
(289.381705 -0.00130983584 0.15009391)
(289.388211 -0.00440931957 0.505259271)
(289.242943 -0.00201758275 0.231193637)
(289.103991 -0.00424897171 0.486884732)
(288.909265 -0.00131172868 0.150310023)
(288.721115 -0.00324158033 0.371448923)
(288.444907 -0.00135890858 0.155714387)
(288.476391 -0.00312683906 0.358298496)
(288.334044 -0.00311686946 0.357155053)
(288.143324 -0.0051631024 0.591628687)
(288.118499 -0.00278526673 0.319153045)
(287.829454 -0.0070524324 0.808129298)
(287.798609 -0.00373228991 0.427678401)
(287.573086 -0.00704026868 0.806734773)
(287.161914 -0.00480427903 0.550517519)
(287.030966 -0.00423033464 0.484746905)
(286.735238 -0.00826358667 0.946912925)
(286.317115 -0.0114292724 1.30966576)
(286.50584 -0.00741721739 0.849929525)
(285.737781 -0.0108649336 1.24499924)
(288.489194 -0.00580046319 0.664667976)
(71.7420416 -9.41630026e-05 0.0111786187)