# Force coefficients
# dragDir        : (1.000000000e+00 0.000000000e+00 0.000000000e+00)
# sideDir        : (0.000000000e+00 0.000000000e+00 -1.000000000e+00)
# liftDir        : (0.000000000e+00 1.000000000e+00 0.000000000e+00)
# rollAxis       : (1.000000000e+00 0.000000000e+00 0.000000000e+00)
# pitchAxis      : (0.000000000e+00 0.000000000e+00 -1.000000000e+00)
# yawAxis        : (0.000000000e+00 1.000000000e+00 0.000000000e+00)
# magUInf        : 2.910000000e+02
# lRef           : 1.000000000e+00
# Aref           : 2.812500000e-01
# CofR           : (5.000000000e-01 0.000000000e+00 0.000000000e+00)
#
# Time           	Cd               	Cs               	Cl               	CmRoll           	CmPitch          	CmYaw            	Cd(f)            	Cd(r)            	Cs(f)            	Cs(r)            	Cl(f)            	Cl(r)            
1e-10            	3.290148516e-03	3.539795844e-01	3.089132333e-03	2.619007508e-10	-3.583088845e-04	4.105814189e-02	1.645074520e-03	1.645073996e-03	2.180479341e-01	1.359316503e-01	1.186257282e-03	1.902875051e-03
4.95349e-09      	3.458034994e-03	3.550085949e-01	3.098112369e-03	2.630232836e-10	-3.515201653e-04	4.028023156e-02	1.729017760e-03	1.729017234e-03	2.177845290e-01	1.372240659e-01	1.197536019e-03	1.900576350e-03
