/*--------------------------------*- C++ -*----------------------------------*\
| =========                 |                                                 |
| \\      /  F ield         | OpenFOAM: The Open Source CFD Toolbox           |
|  \\    /   O peration     | Version:  v2006                                 |
|   \\  /    A nd           | Website:  www.openfoam.com                      |
|    \\/     M anipulation  |                                                 |
\*---------------------------------------------------------------------------*/
FoamFile
{
    version     2.0;
    format      ascii;
    class       volScalarField;
    location    "0.0534000002";
    object      alphat;
}
// * * * * * * * * * * * * * * * * * * * * * * * * * * * * * * * * * * * * * //

dimensions      [1 -1 -1 0 0 0 0];


internalField   nonuniform List<scalar> 
14400
(
5.8238551e-06
0.000319681997
0.000423322001
0.000504100204
0.000577510191
0.000649856109
0.000723419295
0.00079994831
0.000878585843
0.000959811557
0.00104080058
0.00112171102
0.0011981312
0.00126968309
0.00132934455
0.00137509932
0.00139964418
0.00140324562
0.00137671942
0.00131839081
0.00121605115
0.00106430236
0.000845869432
0.000552914473
3.74399406e-05
3.86138041e-09
1.76668835e-10
6.97028576e-13
1.09092978e-10
3.00494553e-11
4.698541e-12
8.16857112e-14
1.1042101e-11
2.212724e-10
1.44798126e-06
2.84627938e-05
4.17402053e-05
8.45255479e-06
5.41576694e-08
3.26941043e-06
3.61227097e-06
8.30760149e-06
7.27193899e-06
4.42313777e-07
4.48185147e-06
1.91592266e-05
2.66340944e-06
1.08239783e-06
2.46134911e-07
1.83218875e-09
5.90948168e-07
6.7800778e-07
1.09282128e-06
2.38660079e-06
2.4875928e-06
1.11758175e-06
3.12272917e-06
3.46015352e-06
8.17277186e-06
4.33782197e-06
3.88706456e-06
2.79758207e-06
2.4695025e-06
2.8705725e-06
2.72237908e-06
3.28607679e-06
3.01580328e-06
3.5407455e-06
2.30359134e-06
3.76337315e-06
2.28613445e-06
4.38181719e-06
1.7818835e-06
3.53803917e-06
3.73526562e-06
3.82443202e-06
3.77697073e-06
3.69744201e-06
3.68722077e-06
3.52464687e-06
2.4129101e-05
0.00052255301
0.000668329125
0.000778021465
0.000878757222
0.000983207647
0.0010972045
0.00122623069
0.00137016381
0.0015325932
0.0017097823
0.00190622983
0.00211659361
0.00234775381
0.0025900717
0.00285040694
0.00311182006
0.00338519539
0.00364912541
0.00391649964
0.00415841972
0.00438985161
0.00457453639
0.00472851476
0.0048072517
0.00482711945
0.00473549861
0.00454396186
0.00419893014
0.00371182895
0.00303646924
0.0021639568
0.00104043781
0.000121222973
5.66831733e-07
2.62593024e-09
1.23588006e-10
2.97710177e-05
0.000140218123
1.66342202e-06
1.81155307e-06
4.21080003e-07
3.07045693e-07
5.7390942e-06
1.08943066e-05
3.06451615e-06
2.6649355e-05
4.36462833e-05
6.23760459e-05
7.71205357e-05
1.57413106e-05
5.70264204e-06
3.16647895e-06
1.24670509e-06
2.20483012e-06
3.00015173e-06
2.61084152e-06
1.24947664e-06
4.17732665e-06
1.0344143e-05
1.09095685e-05
2.98090983e-06
5.7146302e-06
4.95611631e-06
3.2297989e-06
6.14951204e-06
2.8066488e-06
7.2360757e-06
4.31559949e-06
7.90666153e-06
3.22990067e-06
4.94461093e-06
1.25653356e-05
4.51720915e-06
4.01653792e-06
4.25679956e-06
4.20805927e-06
3.87977173e-06
3.87023171e-06
4.06498203e-06
2.33647009e-05
0.000518036083
0.000664094733
0.000778504536
0.00088725394
0.00100091923
0.00112769124
0.00126907348
0.0014309972
0.00161081385
0.00181590113
0.00203987195
0.00229327195
0.00256471806
0.00286921689
0.00318842985
0.00354316704
0.00390581798
0.0043044138
0.0046995054
0.00512748326
0.00553433973
0.00596520757
0.00634887942
0.00673837136
0.00704328479
0.00732189171
0.00746425801
0.00752927208
0.0073904949
0.00710124182
0.00652852841
0.00571837535
0.00457785907
0.00320903861
0.00156119386
9.16381187e-06
1.99727022e-13
4.27520738e-09
2.50243016e-05
1.48146644e-05
3.96640709e-05
2.51650995e-05
1.66995225e-05
3.82826392e-06
2.67767279e-06
2.52615907e-06
2.97218651e-07
3.86147154e-12
5.43420582e-09
5.28022238e-06
3.82388068e-05
3.87794346e-05
1.87575247e-05
2.04657477e-05
4.50398153e-05
1.40971912e-05
1.04219575e-05
2.7287776e-08
2.10889592e-08
9.35669273e-07
6.8731003e-06
4.16085922e-06
5.7215768e-06
5.24363653e-06
3.46919945e-06
7.19866531e-06
3.40381024e-06
3.78578001e-06
1.87614085e-06
2.78908239e-06
1.56283098e-06
1.53422812e-06
3.33719143e-06
4.20681523e-06
3.39282306e-06
3.79034463e-06
3.81529631e-06
3.96497458e-06
3.62381059e-06
1.74697925e-05
0.000470984712
0.000605640737
0.000713120841
0.000817131195
0.000929006685
0.00105355304
0.00119559711
0.00135561577
0.00153827863
0.0017419866
0.00197314396
0.00222774414
0.00251478094
0.00282658068
0.00317545178
0.00354832413
0.00396163831
0.00439488188
0.00486956431
0.00535545889
0.00587997206
0.00640064185
0.00695103092
0.00747367496
0.00800745467
0.00847710111
0.00892437011
0.00925400882
0.00950607641
0.00956472358
0.00946179812
0.00906459866
0.00839249212
0.00731553421
0.00585845856
0.00398588529
0.00184332364
8.48948129e-05
9.7360489e-08
2.00764924e-06
1.48493113e-09
2.75148737e-09
3.90204673e-07
3.15612858e-06
4.6436026e-11
1.019093e-11
4.19724497e-09
3.95985171e-05
5.41602393e-05
2.15480059e-05
7.92681435e-09
5.55965313e-06
2.86066587e-05
1.95150399e-05
4.25840973e-10
4.97361606e-06
1.72491934e-05
2.1365247e-05
6.09642978e-07
6.4744352e-08
9.09666673e-07
3.11120102e-06
2.77732214e-06
6.27542699e-06
3.52361867e-06
2.40832766e-06
4.45080694e-06
2.10435236e-06
5.11774064e-06
1.12907592e-05
1.15183244e-06
2.44342727e-06
3.88614474e-06
3.59027068e-06
3.94241842e-06
3.69840564e-06
3.9231488e-06
3.84191632e-06
3.93909644e-06
1.35231496e-05
0.000434009657
0.000560191912
0.000662495396
0.000764492976
0.000874733934
0.000999964574
0.00114036647
0.00130202529
0.00148165813
0.00168844309
0.00191525027
0.0021762941
0.00245863682
0.00278347569
0.00312916809
0.00352626758
0.00394069943
0.00441526711
0.0048989921
0.00545031889
0.00599631842
0.00661463638
0.0072049631
0.00786714098
0.00846796273
0.00913083843
0.00968474724
0.0102751256
0.0106900935
0.0110910988
0.0112261354
0.0112605516
0.0109108716
0.01032862
0.00922589723
0.00773140802
0.00563389423
0.00315804472
0.000444005672
5.07512295e-12
1.9535793e-05
1.16357526e-06
1.45350681e-05
1.88460826e-05
6.82579479e-05
6.49404635e-05
9.68587354e-05
1.3110565e-05
2.69198697e-09
2.01278332e-10
1.80016072e-05
4.12506766e-09
3.9850303e-09
1.70291412e-09
7.47074774e-05
4.17132972e-08
7.97860334e-07
1.64925942e-05
6.40189761e-05
4.59316862e-05
2.43108288e-05
6.11474063e-06
3.47544581e-06
4.47751698e-06
1.25228865e-06
4.02717923e-06
3.14298501e-07
9.74535504e-06
1.71559023e-06
8.47756323e-06
1.07250002e-05
1.36773341e-05
4.37955002e-06
3.48653974e-06
3.79067056e-06
3.89182997e-06
4.00763821e-06
3.9856988e-06
3.85603377e-06
1.02778086e-05
0.000397305106
0.000515169385
0.000613137132
0.000712473982
0.000822181473
0.000945547722
0.0010861662
0.00124445593
0.00142464336
0.00162597292
0.00185470456
0.00210834983
0.00239595853
0.00271211667
0.00306944353
0.00345790524
0.00389459329
0.00436265898
0.0048847327
0.00543452914
0.00604145148
0.00666684849
0.00734809537
0.0080309725
0.00876144658
0.00946623809
0.0101991888
0.0108643565
0.0115206319
0.012046218
0.0124993674
0.0127304671
0.0127879718
0.0124957911
0.0118818271
0.0107551841
0.00912363735
0.00683821652
0.00395143067
0.000160841735
1.82751615e-06
3.51928879e-05
2.03863299e-06
5.06410819e-10
6.31114287e-12
8.53202997e-14
4.39301408e-10
2.11438948e-05
6.27188333e-05
1.36078526e-05
3.5621703e-05
2.32828322e-05
4.68167593e-07
8.19941788e-06
8.99268995e-08
3.03127198e-08
2.83022976e-07
3.6552136e-10
1.97534104e-07
3.32017893e-06
3.95697389e-06
2.8650394e-06
4.50112304e-06
2.67033555e-06
6.24597514e-06
7.12900086e-06
6.75790552e-06
5.2786775e-06
2.17087153e-06
1.21651814e-06
6.07875817e-06
4.48062949e-07
3.93985798e-06
3.64503549e-06
3.6255413e-06
3.73520401e-06
3.70671647e-06
3.69568271e-06
3.67644701e-06
8.05594283e-06
0.000367701756
0.000479431656
0.000574358235
0.000673465745
0.000782603684
0.000907415316
0.00104650202
0.00120681155
0.00138344274
0.00158814383
0.00181099397
0.00207104614
0.00235043063
0.00267861646
0.00302570443
0.0034355868
0.00386086352
0.00436490502
0.00487581404
0.00548263589
0.00608053176
0.00679148563
0.00746818293
0.00827333036
0.00900704193
0.00987979529
0.0106292693
0.0115181064
0.0122133834
0.0130291871
0.0135579936
0.014156324
0.014345869
0.0145042681
0.0140996994
0.0134946082
0.0121453523
0.0103544066
0.00765679378
0.00421134846
0.000456090388
1.45771846e-05
3.1108127e-06
3.49352795e-05
7.65152396e-05
6.5717136e-05
8.99562479e-05
6.93567786e-08
1.1338358e-10
6.90079843e-06
6.87730712e-12
3.09629687e-05
0.000101127031
0.000109822935
4.05331959e-05
9.38006492e-05
2.61362242e-07
3.12170135e-05
1.77122099e-06
1.19157625e-09
1.57917257e-08
3.63794998e-06
4.57712041e-06
5.62571015e-06
7.87040735e-06
7.96227856e-06
7.98999984e-06
6.57410848e-06
2.07306565e-06
3.67116365e-06
1.1578349e-05
9.39930259e-06
4.02043461e-06
3.93661015e-06
4.24723445e-06
4.00699802e-06
3.79233501e-06
3.88292333e-06
3.84522824e-06
6.19666363e-06
0.000337444515
0.00044294512
0.000535359988
0.000633056021
0.000742126773
0.000865111224
0.00100394186
0.0011603122
0.00133651514
0.00153463883
0.00175771855
0.00200819057
0.00228983957
0.00260520018
0.00295871275
0.00335257594
0.00379163808
0.00427706221
0.00481364063
0.00540051387
0.00604177338
0.00673334884
0.00747787148
0.00826674418
0.00910016876
0.0099634162
0.0108526517
0.0117447366
0.0126289717
0.0134705479
0.0142474861
0.0149089724
0.0154155589
0.0156950605
0.0156828071
0.0152796636
0.0143890559
0.0128846387
0.0106436641
0.00754105573
0.00322712528
0.000243647952
1.10943803e-05
4.90766354e-08
8.98880314e-07
5.95916328e-08
1.06617352e-05
0.000104880585
6.22854374e-05
5.9249352e-05
9.50908621e-05
1.31321297e-09
2.71135225e-08
5.64732014e-10
3.98349601e-06
1.12193333e-07
2.03410943e-05
2.24559587e-05
3.95547454e-05
4.98801301e-05
6.77704906e-06
7.40428543e-06
2.39315528e-06
3.43182359e-06
1.14096494e-06
1.4273297e-06
1.42066706e-06
1.83381459e-06
8.35893499e-06
2.66251535e-06
1.20509699e-06
3.06257841e-06
3.55273362e-06
4.78553351e-06
4.25391714e-06
3.80343476e-06
3.72588178e-06
3.76203527e-06
3.70349794e-06
4.96672244e-06
0.000313841941
0.00041531833
0.000506542288
0.000605260137
0.000714191537
0.000838907543
0.000975752416
0.00113428903
0.00130574462
0.00150743581
0.00172217445
0.00197912416
0.00224781313
0.00257474076
0.00290948095
0.0033232049
0.00373648297
0.00425469584
0.004757474
0.00539646622
0.00599525038
0.006766474
0.00745956539
0.00836524931
0.00913851471
0.010166314
0.0109881152
0.0121036918
0.0129173984
0.0140528355
0.0147649694
0.0158010117
0.0162638145
0.0170048619
0.0169926967
0.0171343915
0.0163154063
0.0154095168
0.0133255339
0.0107713333
0.00685828479
0.00186386158
0.000271958747
2.16885029e-07
1.68033036e-06
6.4937108e-06
8.57130775e-09
5.72756334e-11
1.99058994e-13
1.2474309e-11
1.01901916e-05
7.57475277e-05
1.37853087e-05
5.79046989e-05
3.00133252e-06
4.86548431e-06
4.49383053e-05
6.17829474e-11
1.50965751e-06
2.88932994e-08
3.46042001e-06
3.19180216e-06
2.0468275e-06
4.49100162e-06
2.16520023e-06
5.43341874e-06
2.07686438e-06
6.04481696e-06
1.55560815e-05
4.13053812e-06
3.58511024e-07
1.74774047e-06
3.50433722e-06
5.61985214e-06
4.02129143e-06
3.56222936e-06
3.70934797e-06
3.74411511e-06
3.83026979e-06
3.8597992e-06
0.000287929397
0.000385294524
0.000475591645
0.000574076617
0.000683116071
0.000806696092
0.000942880823
0.00109865574
0.00126884969
0.00146599824
0.00167935713
0.00192980795
0.00219762643
0.00251592163
0.00285126038
0.00325418338
0.00367102746
0.00417660277
0.00468818202
0.00531365815
0.00592967267
0.00668831813
0.00741115221
0.00830805167
0.00912835053
0.0101553808
0.0110469263
0.0121761588
0.0130887591
0.0142622511
0.0151105872
0.0162242345
0.0168711192
0.0177508227
0.0179840845
0.018352844
0.0178558027
0.0172925836
0.0156137419
0.0135192
0.0100565523
0.00542663792
0.00178953486
0.000378158481
0.000112799146
7.23241027e-05
0.000136484598
0.0001168368
0.000168195422
0.000166245813
5.42118033e-05
2.67260911e-05
8.84325181e-05
7.09612961e-05
1.35058367e-05
0.000122354969
1.72835714e-09
8.4417346e-05
3.62788298e-06
8.95756662e-06
7.68128541e-06
3.22815558e-06
4.76301916e-06
4.05491593e-06
5.79210331e-06
2.61408689e-06
3.96932779e-06
1.69395169e-06
1.79959133e-06
6.9252899e-06
6.07548099e-06
5.13841211e-06
4.10552653e-06
3.98836323e-06
3.64044861e-06
3.89509934e-06
3.77835389e-06
3.80659213e-06
3.81480485e-06
3.06237762e-06
0.000265930715
0.000360624435
0.000450784433
0.000550543705
0.000659182369
0.000784207083
0.000917780959
0.00107571472
0.00124034694
0.0014416898
0.00164551822
0.00190397404
0.00215686907
0.00248945523
0.00280262033
0.00322963213
0.00361476483
0.00415914985
0.00462677534
0.00531244173
0.00586912392
0.00671782992
0.00736233247
0.00838918404
0.00910809422
0.0103158939
0.0110790353
0.0124509924
0.0132057109
0.0146945131
0.0153567366
0.016867233
0.0173075608
0.0186708274
0.0186947504
0.0196316549
0.0189531889
0.019026343
0.017236683
0.015799246
0.0123422491
0.00854857995
0.0024052648
1.29919846e-05
1.04994326e-12
7.29417786e-12
1.26936195e-11
3.56148213e-15
4.60232285e-12
7.8690364e-11
5.18761137e-11
9.23054316e-12
1.42513915e-12
5.39544294e-10
3.24378005e-05
1.97581926e-11
7.55073318e-05
3.92787689e-09
3.63650509e-05
2.65155761e-05
6.05220478e-06
2.50775649e-06
4.57540441e-06
1.46005847e-06
5.95116193e-06
1.65049531e-06
1.04656798e-05
1.93807401e-06
1.82890538e-06
8.21910224e-06
2.71437335e-06
1.87439498e-06
4.07661793e-06
3.39649748e-06
3.09029573e-06
3.54600403e-06
3.57571069e-06
3.57818084e-06
3.69369721e-06
2.408802e-06
0.000243605934
0.000335677381
0.000425803214
0.000525743995
0.000633864289
0.000757885173
0.000889414198
0.00104527737
0.00120633768
0.00140479834
0.00160336848
0.0018583862
0.00210407944
0.00243307701
0.00273685307
0.00316089088
0.00353437725
0.00407784904
0.00453188397
0.00522121423
0.00576325542
0.00662414553
0.00725446412
0.00830752662
0.00901460545
0.0102695951
0.0110252971
0.0124737854
0.0132279431
0.0148327287
0.0155050569
0.0171838282
0.0176514572
0.0192510145
0.0193305735
0.0205905274
0.0200143075
0.0205181706
0.0189051426
0.018024389
0.0148574475
0.0117728357
0.00598235739
0.00166133754
0.000829523747
0.000279134835
0.00015738029
0.000144475099
0.000164275057
0.0002132626
0.000194658077
0.000166801719
0.000148976673
0.000160755246
8.67771035e-10
0.000136629608
2.85553539e-06
4.25993831e-05
4.3098211e-07
2.90973469e-08
1.21207243e-06
1.48888249e-06
5.43621472e-06
2.62248391e-06
4.64788666e-06
5.29796275e-06
3.85205836e-06
8.1157629e-06
1.73732264e-06
1.69756653e-06
7.01320327e-06
6.54524128e-06
3.930218e-06
2.31709839e-06
3.00967447e-06
3.68981244e-06
3.79739197e-06
3.68115633e-06
3.74104698e-06
1.95165629e-06
0.000225271717
0.00031611683
0.000407253125
0.000508493902
0.000616789881
0.000741456682
0.000871612407
0.00102806966
0.00118596814
0.00138570725
0.00157879558
0.00183662342
0.00207368064
0.00240813545
0.00269900232
0.00313271591
0.00348765056
0.0040472638
0.00447557725
0.00519070301
0.0056983574
0.0065990632
0.00718513683
0.00829761353
0.00895000693
0.0102904605
0.0109814699
0.0125481118
0.0132296948
0.0149914468
0.0155883981
0.0174676938
0.0178663163
0.0197123889
0.0197430175
0.0212948443
0.0207064733
0.0215446411
0.0199727583
0.0194655191
0.0164096688
0.013701561
0.00813137241
0.00208573352
8.8520357e-05
3.82908643e-12
5.1686888e-11
1.62792364e-12
2.57283117e-10
1.58496603e-06
7.47115914e-09
1.57635799e-11
3.08078755e-10
1.42880436e-10
9.22432764e-05
1.16692194e-06
1.0095651e-05
3.47517084e-05
1.54310748e-05
3.57602383e-05
1.11275606e-05
7.16312038e-06
5.37796617e-06
3.47729372e-06
4.87976991e-06
2.0809148e-06
5.53910871e-06
3.22896341e-06
3.43369444e-06
1.83712523e-06
4.63519114e-06
5.57462745e-06
3.10721273e-06
2.11087878e-06
3.72113396e-06
3.26652454e-06
3.78141026e-06
3.6579377e-06
3.62646367e-06
1.53123877e-06
0.00020472157
0.00029401052
0.000386157857
0.000486818562
0.0005958731
0.000717356705
0.000849000511
0.000998970599
0.0011607501
0.00134931215
0.00155071036
0.00179058174
0.00204312565
0.00234995807
0.00266727971
0.00305986588
0.00345744559
0.00395745558
0.0044516792
0.0050824918
0.00568864061
0.00647280541
0.00720173348
0.00815684828
0.00901054905
0.0101437795
0.0111103754
0.0124118221
0.0134598818
0.0148938204
0.0159642386
0.0174556862
0.018448229
0.0198620604
0.0206140825
0.0217247953
0.02198015
0.0224307582
0.021797436
0.0210451854
0.0189381516
0.0161282077
0.011612618
0.00592088409
0.00250665834
0.000745081783
0.000237865612
0.000143597604
0.000102042035
0.000229279023
0.000139733253
0.000213391973
0.000131406891
0.000176438338
6.92082036e-07
2.66808961e-05
0.000102526717
2.15483844e-09
2.83421378e-06
6.7129149e-10
9.93309651e-07
2.71279966e-06
2.42923422e-06
5.39702896e-06
2.95044319e-06
4.76722629e-06
2.56512716e-06
2.99297433e-06
5.95219015e-06
3.97727518e-06
3.69377437e-06
4.72093676e-06
2.9180958e-06
2.35290384e-06
3.59860454e-06
3.58498432e-06
3.69745584e-06
3.65210794e-06
3.62869888e-06
1.22698279e-06
0.000187032121
0.000275864692
0.000369364985
0.000470297462
0.000579692518
0.000699740848
0.00083148085
0.000978377361
0.00114087523
0.00132434631
0.0015280139
0.00176008161
0.00201767181
0.00231304169
0.00263993668
0.00301619707
0.00343037985
0.00390771992
0.00442908425
0.00502907779
0.00567760577
0.00642055275
0.00721299869
0.00811357976
0.00905876598
0.010120344
0.0112136871
0.0124217901
0.013639203
0.0149535685
0.0162430069
0.0175857466
0.0188531447
0.0200902672
0.0211768535
0.022091482
0.0227397276
0.0229952739
0.0227985295
0.0218845797
0.0202125477
0.017326964
0.0132105616
0.00711381202
0.00154992094
0.000121592981
5.70115644e-07
1.44233004e-06
0.000144553974
2.66966433e-05
3.51162984e-05
1.16739224e-06
2.24997629e-05
7.30454408e-05
7.04259462e-05
0.000195259561
1.50461049e-07
0.000133314918
1.78811932e-05
5.09134981e-05
1.08929203e-05
5.74889791e-06
4.35447708e-06
4.05128213e-06
3.56045552e-06
3.45632463e-06
3.26793469e-06
1.953216e-06
4.86404745e-06
1.4520584e-06
2.31382756e-06
3.80124011e-06
2.92526345e-06
3.50079703e-06
4.28142287e-06
3.65186329e-06
3.71064206e-06
3.69388153e-06
3.66087918e-06
9.78462894e-07
0.000169380999
0.000257881374
0.000352386947
0.000452812912
0.000562120576
0.00067945586
0.000811234539
0.000952931604
0.00111676574
0.00129155572
0.00149920112
0.0017175705
0.00198361166
0.0022581454
0.00260056099
0.00294606478
0.00338655595
0.00381970317
0.00438343942
0.00492154654
0.00563581207
0.00629426338
0.00718546478
0.00797352466
0.00906236456
0.00997772169
0.0112729341
0.0122957509
0.0137866841
0.0148730257
0.016519663
0.0175921153
0.0193091586
0.0202415525
0.0218730785
0.0224671975
0.0237492324
0.0237010189
0.0242083942
0.0230584487
0.0221296686
0.0191858765
0.0159196145
0.0102384762
0.00376227345
0.000927340963
0.00039803808
2.92128829e-05
2.62427489e-09
4.79697904e-07
1.2491333e-05
2.96201035e-05
9.14300839e-07
7.97213765e-09
5.014329e-06
1.05217652e-07
7.82490108e-05
1.18839151e-10
8.24254075e-06
5.7114835e-07
1.41667784e-06
3.36724725e-06
2.46411208e-06
3.20432453e-06
3.46848538e-06
3.52886167e-06
5.62747504e-06
3.81850138e-06
5.8414117e-06
5.76989795e-06
1.11922435e-06
2.52744976e-06
3.12051313e-06
4.03190234e-06
4.51978956e-06
3.82801698e-06
3.64015083e-06
3.61019638e-06
3.5524417e-06
7.78212071e-07
0.000152475955
0.000241297818
0.000336819957
0.000437404807
0.00054592974
0.000662537666
0.000792525418
0.000933345846
0.00109454582
0.0012688052
0.00147289117
0.00169160872
0.00195299312
0.00222948307
0.0025659327
0.00291602618
0.00334900597
0.00379079338
0.00434520232
0.00489787763
0.00560066017
0.00628195883
0.00715905153
0.00798100461
0.00905248778
0.0100158828
0.0112898843
0.0123783098
0.0138441054
0.0150174875
0.0166364025
0.0178216956
0.0195122668
0.0205879473
0.0222016398
0.0229735972
0.0242580397
0.0244246758
0.0249704686
0.0240743797
0.0232459556
0.0206231603
0.0175654534
0.0122983628
0.00507242329
0.000994525474
6.45505097e-05
2.85947117e-05
9.02036631e-05
0.000308474378
0.00025534279
0.000276789374
0.000187602259
0.000277135107
7.37276022e-05
0.000256978951
4.03625419e-06
0.000138128285
1.6652105e-06
4.79149587e-06
3.24767984e-06
2.95890875e-06
4.23022135e-06
4.08105954e-06
4.96976466e-06
4.2043911e-06
3.32070304e-06
3.12088437e-06
3.85440173e-06
1.40880053e-06
3.96273615e-06
2.71420528e-06
4.19341546e-06
5.14059778e-06
4.56069248e-06
3.9615139e-06
3.71205709e-06
3.66270854e-06
3.67352581e-06
6.17663986e-07
0.000135520668
0.000224434276
0.000320375011
0.000419906859
0.000527315467
0.000640937866
0.000769586938
0.000905498233
0.00106603514
0.0012327989
0.00143789948
0.00164550172
0.00191100037
0.00217136817
0.00251715352
0.0028443489
0.00329505045
0.00370496328
0.00429010057
0.00479921772
0.00555220146
0.00617488275
0.00713013106
0.00787404342
0.00906182634
0.0099220229
0.011361561
0.0123145889
0.0140062876
0.0150049132
0.0169206567
0.0178870001
0.0199548007
0.0207680671
0.0228468662
0.0233233635
0.0251654246
0.0250291529
0.0262263401
0.025069037
0.0249826725
0.0222242261
0.0199415526
0.0146932306
0.00808329707
0.00232016552
0.000732407079
0.00018628375
0.000237642889
1.16974578e-06
5.64417126e-10
5.13396993e-13
7.89571435e-10
4.00790251e-16
3.87064515e-05
5.43538815e-10
1.30337123e-05
1.85655324e-08
4.02041445e-06
2.56675847e-05
3.48284631e-06
2.4968139e-06
3.2848027e-06
3.31067366e-06
4.83795042e-06
4.15915143e-06
4.73346747e-06
4.13978128e-06
4.62373641e-06
7.25559157e-06
4.27666422e-06
2.95510983e-06
3.74885568e-06
5.89446368e-06
4.40106598e-06
3.87620405e-06
3.69489751e-06
3.57438152e-06
3.61332938e-06
5.30022491e-07
0.000122743593
0.000212778383
0.000309543508
0.000409005997
0.000515450724
0.000628036748
0.000754651208
0.000889080739
0.00104648276
0.00121155672
0.00141214621
0.0016180862
0.00187729102
0.00213639881
0.00247364011
0.00280063827
0.00324010626
0.00365203447
0.00422298697
0.00473822349
0.0054741789
0.00610992769
0.00704589272
0.00781356145
0.00898067455
0.00987938253
0.0112973863
0.0123071198
0.013975942
0.0150516461
0.0169417173
0.0180065673
0.0200443945
0.0209779044
0.0230219703
0.0236404536
0.0254449607
0.0254730975
0.0266377007
0.0256693778
0.0255729879
0.0230216098
0.0207473381
0.0156504121
0.00941472964
0.000810472929
5.71873659e-05
7.16856232e-15
1.20439314e-07
0.000235138293
0.000246842474
0.000362995043
0.000222380715
0.000347250571
1.69794732e-08
0.000300443132
1.27745666e-05
6.23704555e-05
1.86407672e-05
2.60203337e-09
1.51242325e-06
2.70962015e-06
3.3771704e-06
3.91599768e-06
4.38888104e-06
4.38258485e-06
2.95431263e-06
2.68737977e-06
3.49646744e-06
2.55584613e-06
5.7843636e-06
3.37102112e-06
4.55691273e-06
6.46043676e-06
4.25606119e-06
3.96485453e-06
3.85737479e-06
3.6475422e-06
3.72219317e-06
4.54784098e-07
0.000109738292
0.000200473818
0.000297516764
0.000396162676
0.000501369725
0.00061181307
0.000736569725
0.00086769195
0.00102297632
0.00118329816
0.0013817846
0.00158104295
0.00183855275
0.00208842669
0.00242504996
0.00273954756
0.0031806492
0.00357610617
0.00415297923
0.00464726619
0.0053968247
0.00600708465
0.0069696295
0.00770780071
0.00892189271
0.00978793559
0.0112823382
0.0122566197
0.0140406663
0.0150775647
0.0171305699
0.0181525097
0.0204089241
0.0212961564
0.0236208619
0.0241935192
0.0263442819
0.0263359867
0.0279124035
0.0269336167
0.0273087116
0.0247950343
0.0230157334
0.0180529953
0.0126658561
0.00383834536
0.00151244294
0.00043347096
7.67357055e-05
1.10667259e-09
1.21262482e-06
2.25835734e-10
1.05857316e-10
1.14776213e-08
9.49728987e-05
1.00320248e-05
5.20392702e-05
0.000107118157
2.57633566e-05
3.4555173e-05
1.28508572e-05
5.41947943e-06
4.39951531e-06
5.07349613e-06
3.95692183e-06
4.46501937e-06
3.4486875e-06
5.94022599e-06
2.91770554e-06
6.44860106e-06
7.15922989e-06
3.95877293e-06
4.31519369e-06
6.0613673e-06
3.64269361e-06
3.68082806e-06
3.74531222e-06
3.69401003e-06
3.72994185e-06
4.42599306e-07
9.88126699e-05
0.000190841935
0.000288265124
0.000386743438
0.000490698871
0.00060043697
0.00072267564
0.000853238408
0.00100435897
0.00116478219
0.00135670415
0.00155736666
0.00180481047
0.00205830315
0.00237985502
0.00270154283
0.00312058877
0.00352885812
0.00407419822
0.00459003023
0.00529562091
0.00594080664
0.00684369755
0.00763682077
0.00877225501
0.00972201761
0.0111154666
0.0122123994
0.0138698701
0.0150786134
0.0169764588
0.0182285806
0.0203001798
0.021483172
0.0235966562
0.0245346406
0.0264577907
0.0268826665
0.0282335092
0.0277439672
0.0279239837
0.0259205845
0.0240141373
0.0195577843
0.0142856002
0.00590958421
0.000961012233
0.000174100093
0.000241448676
0.000307722163
0.000307043916
0.000422269518
0.000231160711
0.000425607458
1.89854355e-06
6.35213798e-05
1.34665278e-07
3.7066778e-11
4.64573759e-07
9.26782777e-11
3.00678392e-06
4.48481842e-06
3.54508224e-06
5.42666687e-06
2.66414474e-06
3.97570167e-06
3.05007813e-06
4.65312597e-06
2.87401662e-06
2.40622485e-06
4.76246295e-06
4.49233515e-06
4.90309456e-06
5.02881824e-06
2.99552135e-06
3.75134979e-06
3.78441131e-06
3.74608562e-06
3.8031556e-06
4.51674629e-07
8.77678072e-05
0.000180667586
0.000278217153
0.00037599693
0.000478994373
0.000587074374
0.000708043154
0.000836122548
0.000986017353
0.00114291267
0.00133396406
0.00152963628
0.00177696856
0.00202341174
0.002346192
0.00265796291
0.00308043721
0.00347487778
0.00402714612
0.00452398555
0.00524200661
0.00586172339
0.00678564017
0.00754574889
0.00871541267
0.00962413388
0.0110712768
0.0121193674
0.0138573797
0.0150104361
0.0170228661
0.0182140197
0.0204404818
0.0215599421
0.0238738088
0.0247494888
0.026923776
0.0272920712
0.0289529338
0.0284201583
0.0289822735
0.0269730681
0.02553651
0.0212245123
0.0166118977
0.00855919126
0.00298119822
2.87573869e-07
0.000120652982
1.71746038e-05
1.00497637e-08
1.35277961e-05
1.05701706e-06
1.31389274e-05
8.50931839e-05
0.000337354219
3.13955912e-06
0.000200450045
7.2580141e-07
5.53668762e-05
1.81688758e-05
6.20538189e-06
6.00290991e-06
4.74787681e-06
3.2292906e-06
4.23368078e-06
2.89539443e-06
6.23158116e-06
2.86433908e-06
4.92562693e-06
8.60131683e-06
4.2593062e-06
4.47964886e-06
4.43724237e-06
2.75498094e-06
3.45364361e-06
3.62641125e-06
3.80775535e-06
3.82864134e-06
4.26675723e-07
7.60233252e-05
0.000169166246
0.000266143123
0.00036310229
0.000464221706
0.000571224859
0.000689149184
0.000816731357
0.000962065931
0.00111982949
0.00130408696
0.00150301608
0.0017402695
0.00199377216
0.00230169926
0.00262629107
0.0030270345
0.00344273352
0.00396343043
0.00449356075
0.00516606276
0.0058358632
0.00669483303
0.00752807305
0.00860654762
0.00961965206
0.0109417736
0.0121360966
0.0137079971
0.0150618834
0.0168617355
0.0183224151
0.0202875154
0.0217588181
0.0237642834
0.0250850636
0.0269096722
0.027820624
0.0291008461
0.0291974133
0.0293704615
0.0280325519
0.0262653489
0.0225944774
0.0178078465
0.0100674643
0.0020939064
0.000861494791
0.000157474946
0.000202952457
0.000326266108
0.000163685602
8.93468654e-05
0.000135241303
5.01176137e-08
3.99600738e-10
0.000104364486
3.37170141e-10
5.07649002e-05
5.27307174e-08
5.03598042e-06
5.57007084e-06
4.13242803e-06
3.96527317e-06
3.42307056e-06
3.51903296e-06
3.63602624e-06
4.74220588e-06
3.45221283e-06
2.81590767e-06
6.24909914e-06
3.95865375e-06
4.79131553e-06
3.47878367e-06
2.41758342e-06
3.53544175e-06
3.6515115e-06
3.74736067e-06
3.78506537e-06
3.85282178e-07
6.48604447e-05
0.000157553192
0.000253580076
0.000349086303
0.000448336901
0.000553016529
0.000668515179
0.000793137744
0.000935721278
0.00108990281
0.00127127194
0.00146595703
0.00170047807
0.00194907605
0.00225495261
0.00257408268
0.0029743515
0.00338428791
0.00390750022
0.00443198321
0.00511205366
0.00577680644
0.00665110722
0.00748015264
0.00858487685
0.00959420344
0.0109567898
0.0121463227
0.0137763977
0.015122518
0.0170026843
0.0184513264
0.0205254164
0.0219809911
0.0241334128
0.025437691
0.0274590524
0.0283576539
0.0298953466
0.0299906134
0.0304814563
0.0291716389
0.0277612366
0.0242026102
0.0197265052
0.0121509705
0.00343144816
0.000456368393
3.48899541e-06
2.91936721e-06
3.54135011e-06
0.000412642276
0.000137487578
0.000455556381
0.000173368373
0.000442940786
4.23915029e-06
0.000232032032
1.44837487e-06
3.82683456e-05
8.82303379e-06
6.80445784e-06
5.42602474e-06
4.13118865e-06
3.76231098e-06
3.67469328e-06
3.26472423e-06
5.03654125e-06
2.68226749e-06
5.19214896e-06
7.24972907e-06
4.13807439e-06
4.98126643e-06
2.7132382e-06
2.76868073e-06
3.46908547e-06
3.60731134e-06
3.75883033e-06
3.77511453e-06
3.45206587e-07
5.44572167e-05
0.000146001964
0.000240732544
0.000334775958
0.000431850149
0.000534510115
0.000646884633
0.000769406818
0.000907800829
0.00106019938
0.00123596063
0.00142968434
0.00165667433
0.00190587857
0.00220164467
0.00252407643
0.00291082336
0.00332843833
0.0038336754
0.00437266354
0.00502900521
0.00571852229
0.00656172391
0.00743035924
0.00849453703
0.00956387313
0.0108737177
0.0121499154
0.0137115415
0.0151773944
0.0169696933
0.0185775611
0.0205417911
0.0222025082
0.0242235639
0.0257847883
0.0276591537
0.0288700119
0.0302590816
0.0307193102
0.0310861361
0.0301819136
0.0287170427
0.025579924
0.0211262231
0.0140465145
0.00423357157
0.00106464384
0.000130792042
0.000205674551
0.000320783778
1.09809379e-10
8.13624101e-07
8.29000359e-09
1.20726177e-08
2.61821341e-10
4.58664047e-05
1.5762342e-08
1.40129196e-05
2.04441472e-06
3.15440924e-06
4.57620888e-06
4.64788133e-06
2.66747132e-06
3.70534829e-06
2.96683395e-06
3.87149911e-06
4.82616696e-06
3.60054508e-06
4.20318068e-06
3.37642265e-06
4.7413582e-06
3.71057039e-06
2.25080713e-06
2.57918595e-06
3.5928414e-06
3.71015847e-06
3.72725153e-06
3.71640886e-06
2.98334858e-07
4.35423743e-05
0.000132626327
0.00022554894
0.000317803526
0.000412639735
0.000512834972
0.000622356779
0.000742073136
0.000877192882
0.0010266742
0.00119883318
0.0013897651
0.00161294257
0.00185983115
0.00215178748
0.00247291934
0.00285622273
0.00327435235
0.00377708175
0.00431952526
0.00497511623
0.00567252617
0.0065178643
0.0074007241
0.00847138635
0.00956360559
0.0108861634
0.0121965567
0.013779557
0.0152938998
0.0171195648
0.0187936043
0.0208078495
0.022556227
0.0246502553
0.0263248384
0.0283033467
0.0296581422
0.0311926393
0.0318336842