/*--------------------------------*- C++ -*----------------------------------*\
| =========                 |                                                 |
| \\      /  F ield         | OpenFOAM: The Open Source CFD Toolbox           |
|  \\    /   O peration     | Version:  v2006                                 |
|   \\  /    A nd           | Website:  www.openfoam.com                      |
|    \\/     M anipulation  |                                                 |
\*---------------------------------------------------------------------------*/
FoamFile
{
    version     2.0;
    format      ascii;
    class       volScalarField;
    location    "0.0534000002";
    object      ducSensor;
}
// * * * * * * * * * * * * * * * * * * * * * * * * * * * * * * * * * * * * * //

dimensions      [0 0 0 0 0 0 0];


internalField   nonuniform List<scalar> 
14400
(
0
0
0
0
0
0
0
0
0
0
0
0
0
0
0
0
0
0
0
0
0
0
0
0
0
0
0.00121349793
0
0.00786394235
0
0.000876717562
0
0.000106647308
0
0
0
0
0
0
0
0
0
0
0
0
0
0
0
0
0
0
0
0
0
0
0
0
0.000475662907
0
0.000584606178
0
4.98673038e-05
0.000344292467
0.000886434312
0.00610495812
0.00480765567
0.00901403972
0.00890095268
0.0121750071
0.00983855661
0.00823078723
0.00421248373
0.00319254061
0.00719364722
0.000533978908
0.000465599825
0.00444285783
0.0039852456
0.000396422162
0.00102254932
6.26257624e-06
0
0.000142275764
0
0.000335748541
0
0.000474384292
0
0.000546471325
0
0.000553838184
0
0.000503883953
0
0.000406763781
0
0.00028018651
0
0.000115253631
0
0
0
0
0
0
0
0
0
0
0
0
0
0
0
0.000418361213
0
0
0
0
0
0
0
0
0
0
0
0
0
0
0
0
0
0
0
0
0
0
0
0
0.000146604105
0
0.00170325188
0
0.00242422675
0.00115179739
0.00369592003
0.000912100435
0.00326939891
0.00229172781
0.00215233629
0.00501550125
0.0057401197
0.00793272724
0.00848391275
0.0111568708
0.00900677594
0.00900773749
0.00607623416
0.0141430004
0.0093342155
0
9.75984306e-05
0
0.000397159938
0
0.000644053245
0
0.000835787085
0
0.000967165742
0
0.00104115835
0
0.00106366667
0
0.00103986092
0
0.000972034825
0
0.000858350909
0
0.000692095085
0
0.000459152847
0
0.000131967467
0
0
0
0
0
0
0
0
0
0
0
0
0
0
0
0
0
0
0
0
0
0
0
0
0
0
0.000240870836
0
0.000723262861
0
3.48244801e-05
0
0
0
0.000279173571
0
0.000474670803
0
0.00259195318
0
0.00198301288
0
0.00129099247
0
0
0
0
0
0.00167372601
0
0.00588867753
0.00353973419
0.00678897531
0.0078221281
7.35720298e-06
0
0.000161603241
0
0.000334326712
0
0.000481685145
0
0.000592246307
0
0.000663157884
0
0.000696706496
0
0.000696375786
0
0.000664018011
0
0.000598669313
0
0.000496146667
0
0.000348380446
0
0.00014194681
0
0
0
0
0
0
0
0
0
0
0
0
0
0
0
0
0
0
0
0
0
0
0
0
0
0
0
0
0
0
0
0
0
0
0
0
0
0
0
0
0
0
0
0
0
0
0
0
0
0
0
0
0
0
0.00605246446
0
0.000129987297
0
0.000547552604
0
0.000912821759
0
0.00121754245
0
0.00144248968
0
0.00158733373
0
0.00166241793
0
0.00167920245
0
0.00164547402
0
0.00156454969
0
0.00143599973
0
0.00125623938
0
0.00101782684
0
0.000707495585
0
0.000301047493
0
0
0
0
0
0
0
0
0
0
0
0
0
0
0
0
0
0
0
0
0
0
0
0
0
0
0
0
0
0
0
0
0
0
0
0
0
0
0
0
0
0
0
0
0
0
0
0
0
0
7.16945593e-06
0
0.000156693646
0
0.000329920087
0
0.000488482907
0
0.000616286638
0
0.000707120372
0
0.000763594278
0
0.000791405418
0
0.000795327267
0
0.000777707495
0
0.000738357129
0
0.000674843487
0
0.000582406143
0
0.000453188739
0
0.000274287963
0
2.38555762e-05
0
0
0
0
0
0
0
0
0
0
0
0
0
0
0
0
0
0
0
0
0
0
0
0
0
0.00104602008
0
0.00182632868
0
0.0020093515
0
0.00178663753
0
0
0
0
0
0
0
0.000103573034
0
0.00243753449
0
0
0
0
0
0
0
0
0.000197534205
0
0.000836343703
0
0.00142960005
0
0.00195374319
0
0.00236056593
0
0.00264473071
0
0.00282594938
0
0.00292832915
0
0.00297048968
0
0.00296353159
0
0.00291250525
0
0.00281888779
0
0.0026822438
0
0.0025007872
0
0.00227034231
0
0.00198242226
0
0.00162322958
0
0.00116772928
0
0.00059497554
0
7.20011179e-05
0
0.00603225318
0
0.00738946326
0.000148239295
0.00704342738
0.00097566622
0.0060969506
0.00232740785
0.00498043764
0.00355191782
0.00409203206
0.00491159948
0.00390169196
0.00588951279
0.00368547397
0.00640327951
0.00262183606
0.00704852747
0.00314145467
0.00682918406
0.00225902
0.00802874444
0.000872187702
0.00971425239
0
0.0123314067
0.000406931986
0.0104123312
0.00123406166
0.00706430703
0.00310200499
0.00225608243
0.00713686728
0
0.00906483591
0
0.00539578712
0
0
3.41332208e-06
8.16339164e-07
2.81626223e-05
0
5.1827643e-05
0
7.54235973e-05
0
9.69283741e-05
0
0.000115479323
0
0.000131546162
0
0.000146030209
0
0.000159612564
0
0.000172384998
0
0.000183572727
0
0.000191216802
0
0.000191763391
0
0.000179483249
0
0.000145984567
0
7.65020475e-05
0
0
0
0
0
0
0
0
0
0
0
0.00274556873
0.00103720004
0.00295775526
6.22775954e-05
0.00341749747
0
0.0031435135
0
0.00198232827
0
0
0
0
0
0
0
0
0
0
0
0
0
2.36626647e-05
0
0
0
0
0
0
0
0
0.0047012475
0
0.010626076
0
0.00389379998
0.0112921651
0
0
0.000318158332
0
0.00140364709
0
0.00248169286
0
0.00346072895
0
0.00422191908
0
0.00474724974
0
0.00507320637
0
0.00524635715
0
0.00530287094
0
0.00526403801
0
0.00513866742
0
0.00492800248
0
0.00463015012
0
0.00424318697
0
0.00376355601
0
0.00319163397
0
0.00251594325
0
0.00170525343
0
0.000704999707
0
0
0
0
0
0
0
0
0
0
0
0
0
0
0
0
0
0
0
0
0
0
0
0
0
0
0
0
0
0
0
0
0
0.00390545618
0
0.00779928592
0
0
0
0
0.00353758417
0.00104172035
0
0.00022299984
0
0.000988154179
0
0.00176970778
0
0.00248532942
0
0.00304062242
0
0.0034208401
0
0.0036525556
0
0.00376989558
0
0.00379919791
0
0.00375571286
0
0.00364543821
0
0.00346860267
0
0.00322327308
0
0.00290797923
0
0.00252227432
0
0.00206512662
0
0.00153135732
0
0.000905357598
0
0.000148215585
0
0
0
0
0
0.00272617468
0
0.00493464642
0
0.00181723037
0.00176474183
0
0.00267385603
0
0.00291997738
0
0.0035954023
0
0.00382928925
0
0
0
0
0.00101430685
0
0.00587536811
0
0.00876952458
0
0.0105023381
0
0.0121396973
0
0.0100770041
0
0.00336772032
0
0
0.00233531882
0
0
0
0
0.000622913628
0
0.00281286292
0
0.00512746344
0
0.00727290397
0
0.00895446848
0
0.0101282735
0
0.0108777941
0
0.0113101618
0
0.0115103896
0
0.0115310551
0
0.0113973205
0
0.0111166073
0
0.0106895766
0
0.0101196269
0
0.00942140159
0
0.00860629932
0
0.00770007815
0
0.00673101111
0
0.00572499163
0
0.00473339704
0
0.00405581946
0
0.00863359534
0
0.0107092726
0
0.00530456393
0
0.00240314773
0
0.0017546058
0
0.00029281211
0
0
0
0.000884692379
0
0.00233368577
0
0.00903379462
0
0.0125061305
0
0.017060233
0
0.0240149876
0
0.0209765891
0
0.0164313937
0.000681511296
0
0.0138332488
0
0.0055364308
0
0
0
0
0.000671237108
0
0.00311198623
0
0.00577527134
0
0.00825467922
0
0.0101934711
0
0.0115386478
0
0.0123873208
0
0.012863989
0
0.0130672371
0
0.0130573889
0
0.0128625058
0
0.0124887045
0
0.0119344936
0
0.0112040855
0
0.0103023844
0
0.00925281249
0
0.00812071576
0
0.00695507468
0
0.00585360189
0
0.00494292254
0
0.00477640195
0
0.00715879484
0
0.0220982274
0
0.0186807453
0
0.0123470757
0
0.0066505272
0
0.00622661955
0
0.00640955162
0
0.00955333618
0
0.0134530996
0
0.0160135202
0
0.0193249224
0
0.023846315
0
0.0196641866
0
0.0115496644
0
0
0.00950832366
0
0.0115253386
0
0
0.0100118255
0.00160306722
0
0
0.000856689751
0
0.00405967037
0
0.00766135234
0
0.011036184
0
0.0136911684
0
0.0155578454
0
0.0167738598
0
0.0175157608
0
0.0179259381
0
0.0180976199
0
0.0180808954
0
0.0178958685
0
0.0175480676
0
0.0170423095
0
0.0163777857
0
0.0156109278
0
0.0147801015
0
0.013882246
0
0.0130025993
0
0.0121913309
0
0.0117063722
0
0.0134420244
0
0.0204750599
0
0.0173772364
0
0.0157259275
0
0.0143775861
0
0.0127036097
0
0.0153981596
0
0.00907745437
0
0.00718104958
0
0.00276348282
0
0
0.000760254368
0
0.00305715269
0
0.0104627448
0
0.00676906403
0
0.00134179744
0
0
0
0
0
0
0
0
0.000295384671
0
0.00141230743
0
0.0027011136
0
0.00391675777
0
0.00488414399
0
0.00558208611
0
0.00606320089
0
0.00639470796
0
0.00663256085
0
0.00681630827
0
0.00697089586
0
0.00711077856
0
0.00724416009
0
0.00737717705
0
0.00751734773
0
0.00767659507
0
0.00787210561
0
0.00813426315
0
0.00852902636
0
0.00919289075
0
0.0103684576
0
0.0153867276
0
0.0271255604
0.00116987285
0.0322950585
0
0.032122428
0
0.0339178205
0
0.0301983678
0.00197536304
0.0205738212
0.000249173581
0.0222391183
0.00404454704
0.0132886789
0.0091285239
0.00216442251
0.0149445296
0
0.0209136736
0
0.0271995788
0
0.0267503723
0
0.0184621203
0
0
0.0115146114
0
0
0
0
0
0
0
7.36653092e-05
0
0.000348992222
0
0.000675879112
0
0.000992646602
0
0.00125894108
0
0.00147244353
0
0.00164934798
0
0.00181030079
0
0.00197417178
0
0.00215662301
0
0.00236996006
0
0.00262311156
0
0.00292117525
0
0.00326482054
0
0.00364947455
0
0.0040638798
0
0.00448649198
0
0.00486450372
0
0.00512025609
0
0.00509516915
0
0.00473750976
0.000885843667
0.00561150743
0.0115439128
0.00301590614
0.0175213062
0.010773961
0.00811205588
0.0198079633
0.00840392615
0.0158405883
0.0146296933
0.0150038429
0.00753666052
0.0161161831
0.0157870864
0.0125427752
0.0200345623
0.00602947615
0.0254608476
0.0013039976
0.031573724
0
0.0348546852
0
0.03174875
0
0.0254546485
0
0.0139304804
0
0.000768052873
0.0151869669
0
0
0.00810381357
0.00188736632
0
0
4.22124102e-05
0
0.000981110054
0
0.00252887558
0
0.00418672694
0
0.00559398763
0
0.00663350089
0
0.00733733474
0
0.00778719911
0
0.00806090687
0
0.00821499093
0
0.00828443048
0
0.00828747326
0
0.00823222374
0
0.00812440669
0
0.00797950559
0
0.00782648308
0
0.00768634185
0
0.00762420989
0
0.00770190781
0
0.00783376676
0
0.00815762484
0.00170477017
0.00987647975
0.00446081906
0.0173058415
0.00679631229
0.0460426588
0.0125835726
0.0477982191
0.00757938887
0.0291750941
0.018456229
0.0162496978
0.0265948458
0.024448612
0.0237768206
0.0171577064
0.019622052
0.00976927837
0.0241469877
0.0113507213
0.0272117185
0.0074974146
0.0292191582
0.00495662015
0.0242184274
0.00571496688
0.0154062144
0.0112705148
0.00043829057
0.0133088745
0
0.0202458084
0
0
0.00455078309
0
0.00587045682
0.00434402255
0
4.0709007e-05
0
0.000794987155
0
0.00206227755
0
0.00342394108
0
0.00459465989
0
0.00548765265
0
0.00613439711
0
0.00660634729
0
0.00697262504
0
0.00728678157
0
0.00758611017
0
0.00789494548
0
0.0082282967
0
0.00859464938
0
0.00899782852
0
0.00943823369
0.000562585246
0.00991510413
0.00194295815
0.0104374569
0.00338217744
0.0109963762
0.00479666593
0.0116233274
0.00625983664
0.012505025
0.00834765686
0.0147551768
0.0126645422
0.0211697124
0.0248010091
0.0403921572
0.0247660049
0.0327592509
0.0414291682
0.0550175084
0.0356548783
0.051326063
0.0339759529
0.0351570161
0.0478600237
0.0397957728
0.0429439278
0.0425078603
0.043582168
0.0349943716
0.0401433286
0.0337642519
0.0386039234
0.0294689174
0.0293598382
0.0270871217
0.0221612988
0.0277409105
0.0214653059
0.0422467464
0.0168603883
0.0405509308
0.00705622495
0.00357245697
0.0269540514
0.00809010709
0.00205022347
0.00340046942
0.00222518568
7.24675311e-05
0
0.00167482102
0
0.00455803671
0
0.0076514034
0
0.0102739998
0
0.0122179459
0
0.0135493939
0
0.01442494
0
0.0149927907
0
0.0153619613
0
0.0156005845
0
0.015744542
0
0.0158073979
0
0.0157928164
0
0.0156978981
0
0.0155016974
0
0.015244486
0
0.0148711654
0
0.0142366314
0
0.0132249034
0
0.0120359378
0.000116822933
0.0123646986
7.25880825e-05
0.0211016903
0.00414141771
0.0554328862
0.0187729557
0.0513675643
0.0191742818
0.0324451715
0.0265930646
0.0414079666
0.0317323683
0.0412846168
0.0207184902
0.0327292516
0.0302377096
0.0355249199
0.0218863111
0.0315612337
0.0215643245
0.0335833058
0.0249292423
0.0375921632
0.0307030937
0.0377115876
0.0331915955
0.0412617124
0.0384742131
0.0433483241
0.0347046234
0.0324230855
0.0101927113
0.0307746411
0.0317941212
0.0243293192
0.0228639669
0.0157082337
0.00694546501
5.14159741e-05
0
0.00140162259
0
0.00397524062
0
0.00673457854
0
0.0090537447
0
0.0107412738
0
0.0118532184
0
0.0125263946
0
0.0128886072
0
0.0130304997
0
0.0130050746
0
0.0128363023
0
0.0125302415
0
0.0120889666
0
0.0115307118
0
0.0109149649
0
0.0103596111
0
0.0099106859
0
0.00982024668
0
0.010335588
0
0.0117085934
0
0.0141077091
0.00072648484
0.0188659857
0.00205911584
0.0262497306
0
0.040774202
0.00023488822
0.0337110543
0.00463618354
0.0210884653
0
0.0322041947
0.0103449175
0.0266962564
0.00672347108
0.0244912118
0.0114429081
0.0285012147
0.0139018167
0.0275667624
0.0164145141
0.0324968695
0.0224360915
0.0381930559
0.0311241132
0.040092821
0.0286538948
0.0335901399
0.0208103907
0.0249088663
0.00857443836
0.0357352055
0.0208419121
0.0233936438
0.0254490019
0.0356723845
0.0191096227
6.83721018e-05
0
0.00178541021
0
0.00518215082
0
0.00882183152
0
0.0118874601
0
0.0141349639
0
0.0156427112
0
0.0165935372
0
0.0171589813
0
0.0174618722
0
0.0175753293
0
0.0175322332
0
0.0173363717
0
0.0169765689
0
0.0164458173
0
0.0157666569
0
0.0150090655
0
0.0142495684
0
0.0135945922
0
0.0131551506
0
0.0132244989
0
0.0139407249
0
0.0183246691
0
0.0351853405
0
0.03710388
0
0.0225635973
0.004346316
0.0192495607
0.00844319041
0.0255008018
0
0.0200150288
0.00510738415
0.0138158345
0.00902247282
0.0128438224
0.0147857875
0.0114532727
0.0186304721
0.00919287863
0.0186620345
0.00910255016
0.0163941927
0.00898992196
0.0117139249
0.00170487405
0
0.0101263772
0
0.0259735655
0.00126679519
0.010140004
0.00379536603
0.0412706029
0.0258524848
4.41892053e-05
0
0.00116710983
0
0.0034729416
0
0.00593999093
0
0.00801894151
0
0.00954912265
0
0.0105864269
0
0.0112564524
0
0.0116775305
0
0.0119349548
0
0.0120804663
0
0.0121377079
0
0.0121089564
0
0.0119836008
0
0.0117503677
0
0.0114223377
0
0.0110591665
0
0.0107940699
0
0.0108191582
0
0.0112781757
0
0.0118357047
0
0.0107659942
0
0.00608884338
0.00729913033
0.0063882333
0.0168713714
0.0346098832
0
0.0438865038
0
0.0279946794
0
0.0124247388
0.0083296328
0.0248808067
0.0049346388
0.0145784157
0.0025120565
0.0121371723
0.000601787858
0.013248353
0.00171127981
0.00856708714
0
0
0
0
0
0
0
0
0
0
0
0.0058971016
0
0.0202358943
0.022393496
5.27360099e-05
0
0.00149831824
0
0.00460088849
0
0.00791221711
0
0.0106919351
0
0.012726834
0
0.0140945117
0
0.014965832
0
0.0155019218
0
0.0158210067
0
0.0159979902
0
0.0160712148
0
0.0160462646
0
0.0158368393
0
0.0156579309
0
0.0154157866
0
0.0150528028
0
0.0146257013
0
0.0142722557
0
0.0142234634
0.00120809649
0.0160585677
0.00425147545
0.0229047747
0.00133594498
0.0423017242
0
0.063717197
0.0170095875
0
0.0370819893
0.0412016439
0.00314731405
0.0496540156
0.00960150718
0.0427024058
0.0231957588
0.0323141329
0.00530436895
0.0296757244
0.0183394476
0.0183084981
0.0112865345
0.00740853913
0.00387287031
0
0.00569101007
0
0.0022772112
0
0.00329417253
0
0
0
0
0
0
0
0
0
0.00687117734
4.34207695e-05
0
0.000835523878
0
0.00253185764
0
0.00433574582
0
0.005889266
0
0.00710074025
0
0.00802437435
0
0.00876281563
0
0.0094162323
0
0.0100658879
0
0.0107731183
0
0.0115805969
0
0.0125106658
0
0.0135607462
0
0.0147002647
0.000558295681
0.0158653495
0.00212258011
0.016951417
0.00336545997
0.0178084651
0.00370637879
0.0182163605
0.00281776625
0.0177444863
0.0015914055
0.0150294627
0.00418510958
0.00952715972
0.018516017
0.00508701498
0.0311968397
0.0406285295
0.00159415721
0.0908185812
0.0342599076
0.0431407179
0.0622156943
0.048857935
0.0648417223
0.0555535071
0.0325691372
0.0415257279
0.0454723422
0.0473485615
0.0292172587
0.0344511475
0.0259390766
0.0211028215
0.0277887402
0.0139547323
0.0265733626
0.00408988292
0.0272640628
0.00228616302
0.0215334029
0.00444693622
0.0154622144
0.00202196586
0.0125396643
0.0131394498
0
0.0178712473
0
0
0
3.63762139e-05
0
0.000909299096
0
0.00294123406
0
0.00509470938
0
0.00690100862
0
0.00823602999
0
0.00915789794
0
0.0097831941
0
0.0102219549
0
0.0105616279
0
0.0108542555
0
0.0111428328
0
0.0114495735
0
0.0118069149
0
0.0122364895
0
0.0127844116
0
0.0135039156
0
0.0144304353
0.000321050627
0.0158119912
0.00262756411
0.0174405227
0.00455514765
0.0191789317
0.00500338709
0.0191729945
0.00495526304
0.014966159
0.0166426035
0.0189311504
0.0909151328
0.0694254518
0.0470719722
0.0537885236
0.0395587854
0.046495423
0.0316734169
0.0509067961
0.0227543499
0.048153239
0.0402997912
0.0458901064
0.0314120038
0.042260596
0.0359230375
0.0350121495
0.0304265503
0.0206661318
0.0238498728
0.0179174026
0.0136688062
0.00683566614
0.00665978585
0.00286218089
0.0203041073
0.0183950818
0.00199492893
0.0299039934
0
0.0264598798
0.0356887957
0
0
2.19563218e-05
0
0.000514378939
0
0.00170421822
0
0.00296337304
0
0.00402785256
0
0.00483361124
0
0.00541983102
0
0.00585905017
0
0.0062214263
0
0.00656407324
0
0.00693230341
0
0.00736333734
0
0.00789014641
0
0.00854521226
0
0.0093653736
0
0.0103975444
0.00110171267
0.011701234
0.00278496092
0.0133400845
0.00485737629
0.0154035527
0.00744175535
0.0179300034
0.0106566416
0.0212245836
0.013902436
0.0260092739
0.0178076762
0.032262716
0.0268335405
0.0386514501
0.0492677361
0.0563644119
0.0637529712
0.0809888536
0.0319568064
0.0617846294
0.0402499345
0.05330293
0.0651187844
0.0620622668
0.0457186322
0.0404021491
0.0419141504
0.0286672659
0.025700162
0.0148747089
0.0123689599
0
0
0
0
0
0
0
0
0.00933823852
0
0.0108338292
0
0
0.0291461432
0.00640991969
0
2.29026569e-05
0
0.000488861078
0
0.00166657613
0
0.0029077314
0
0.00395689149
0
0.00475877589
0
0.00535619788
0
0.0058234277
0
0.00623210041
0
0.006641478
0
0.00709950132
0
0.00764657835
0
0.00831779316
0
0.00913909213
0.000323543253
0.0101356153
0.00175025514
0.0113326089
0.00340218039
0.0127534395
0.00530497239
0.0144351942
0.00750669397
0.0164433912
0.010158504
0.0189636981
0.0135156598
0.0224793958
0.0179135146
0.0276737359
0.0238662429
0.0336514003
0.0328793683
0.0439985862
0.0887191546
0.0611822696
0.113201403
0.0732608333
0.0730026177
0.0663522864
0.0629511615
0.068171356
0.0617957645
0.0597661497
0.0358630452
0.0393896752
0.0274693712
0.0334282776
0.0230102653
0.0169220126
0.0119593853
0
0
0
0
0
0
0
0
0.00579997862
0
0
0
0
0
0.010017236
0
4.09655718e-06
0
0.000126135624
0
0.000437963419
0
0.000771003966
0
0.00107371453
0
0.00134239721
0
0.00159450594
0
0.00185504209
0
0.00214984752
0.000290969916
0.00250384051
0.00073274332
0.00294137642
0.00130897504
0.00348710318
0.00204875598
0.00416777666
0.00299093194
0.00501652174
0.00418776205
0.00607735249
0.00569122882
0.00740881
0.00755881554
0.00911282837
0.00986440451
0.0113751423
0.012768081
0.0144923288
0.0164590884
0.0187389407
0.0211532375
0.0243040979
0.0267491397
0.0314470104
0.0319346677
0.0403230443
0.0335122159
0.0539697791
0.041054519
0.0928487633
0.0778582598
0.0676092634
0.102128421
0.051976938
0.0768880279
0.059010921
0.0759664307
0.0439316328
0.0525147333
0.0439894499
0.0438370892
0.0301656852
0.0325300149
0.0214638646
0.0143203898
0.0213611277
0.00215170601
0.0175316766
0
0.0144902457
0
0.0252634678
0
0.0235294097
0.00175503999
0
0.0121698502
0
0
0
0
4.22851997e-05
0
0.000596265391
0
0.00218692887
0
0.00386353044
0
0.00527970989
0
0.00639265005
0
0.00727527526
0
0.00803360234
0
0.00876604
0
0.0095518582
0
0.0104493112
0
0.0114971762
0.000543000132
0.0127165346
0.00231387958
0.0141064596
0.00439261747
0.0156329014
0.00680072378
0.0172102463
0.00958715841
0.0186690764
0.0128383948
0.019710972
0.0166513458
0.0199451643
0.020987624
0.0192113572
0.02531807
0.0186582978
0.0281453503
0.0219161273
0.0278737371
0.0328409733
0.0311920434
0.0511544698
0.0876363711
0.0350274631
0.0965867805
0.0610563272
0.0757815276
0.0854365498
0.0838358311
0.0526729029
0.0424441048
0.0530979846
0.024790637
0.0442318829
0.0131887929
0.033749854
0
0.0273065738
0
0.018672271
0
0.0160241937
0
0.022553289
0
0.019953935
0.00542960034
0.0176860312
0.0145530554
0.00239680063
0.00316279482
0.0148513768
0.0115102511
0
0
2.18221121e-05
0
0.000276386932
0
0.00112485915
0
0.00207976943
0
0.00329283769
0
0.00424342495
0
0.00497372202
0
0.00556837648
0
0.00613099709
0
0.00678370178
0
0.00771007894
0.000366373617
0.00777253748
0.00148066372
0.007715293
0.00256337674
0.0081166881
0.00361414579
0.00877116957
0.0046115341
0.0101213226
0.00564436917
0.0120466339
0.00644471086
0.0145848375
0.00699519361
0.0178008561
0.00758965832
0.0213669858
0.0094150844
0.0239511563
0.015409087
0.0227039422
0.029544642
0.0160274241
0.0490753258
0.0149857158
0.067258044
0.0862563308
0.0708026341
0.0685080658
0.094236872
0.0821953702
0.0571461765
0.0248888084
0.0362351569
0.0236406163
0.0183154583
0.0111689285
0.000739313338
0.00553691068
0
0
0
0
0
0
0
0
0
0
0
0
0
0
0
0.00830552075
0.00371733248
0.00578376172
0
6.07238405e-05
0
0.000751746488
0
0.00318417093
0
0.00589864456
0
0.00806013002
0
0.00955997986
0
0.0105090966
0
0.0110686416
0
0.0113818017
0
0.0115574909
0
0.0116731625
0
0.0117766835
0
0.0118816619
0
0.0119614488
0
0.011966392
0
0.0118567927
0.000952064333
0.0116448404
0.00237944748
0.011411877
0.00337220412
0.0112962432
0.00360172505
0.0114680536
0.00268717988
0.0119985371
0.000429315354
0.012488943
0
0.0118803378
0
0.00921174515
0
0.0196585872
0.036337838
0.0441969344
0
0.0236895061
0
0.0320962997
0
0.0228456222
0
0
0
0
0
0
0
0
0
0
0
0
0
0
0.00121744309
0
0
0
0
0
0
0.0071772802
0.00143258173
1.18179955e-05
0
8.99665131e-05
0
0.000354395493
0
0.000653763223
0
0.000916300766
0
0.00113472313
0
0.00132178453
0
0.0014953671
0
0.00167173615
0
0.00186295509
0
0.00207554121
0
0.00230834995
0.000202385705
0.00254801323
0.000493415383
0.00276027161
0.000820676171
0.00287993004
0.0011791962
0.00280894202
0.00156374189
0.0024335285
0.00197114826
0.00165015913
0.0023824295
0.000391897955
0.00269966295
0
0.00262402272
0
0.00152150971
0
0
0
0
0
0
0
0
0.00583799511
0
0
0
0
0
0
0
0
0
0
0
0
0
0
0
0
0
0
0
0.0063237979
0
0
0
0
0.0180802741
0.00894891666
0
0
0
2.44214336e-05
0
0.00049632762
0
0.0021613855
0
0.00405624361
0
0.00561086228
0
0.00669820031
0
0.00735692263
0
0.00766802894
0
0.00769869661
0
0.00748595201
0
0.00703960512
0
0.00635137995
0
0.00540448703
0
0.00418197726
0
0.00267112116
0
0.000868259055
0
0
0
0
0
0
0
0
0
0
0
0
0
0
0
0
0
0
0
0
0
0
0
0
0
0
0
0
0
0
0
0
0
0
0
0
0
0
0
0
0.00382660278
0
0.00810533511
0
0
0.0148456534
0.00397206829
0.0038064957
0.000171397752
0
0
0
0
0
0
0
0
0
0
0
0
0
0
0
0
0
0
0
0
0
0
0
0
0
0
0
0
0
0
0
0
0
0
0
0
0
0
0
0
0
0
0
0
0
0
0
0
0
0
0
0
0
0
0
0
0
0
0
0
0
0
0
0
0
0
0
0
0
0
0
0
0
0
0
0.00333113564
0
0
0.0050411666
0.000457830505
0
0
6.46890514e-05
0
0.000451050967
0
0.000884043781
0
0.00112218598
0
0.00105621506
0
0.000634425258
0
0
0
0
0
0
0
0
0
0
0
0
0
0
0
0
0
0
0
0
0
0
0
0
0
0
0
0
0
0
0
0
0
0
0
0
0
0
0
0
0
0
0
0
0
0
0
0
0
0
0
0
0
0
0
0
0
0
0
0
0.00245157148
0
0.00936212445
0.00137216222
0
0.00330949321
0.000140913979
0
0
0
0
0
0
0
0
0
0
0
0
0
0
0
0
0
0
0
0
0
0
0
0
0
0
0
0
0
0
0
0
0
0
0
0
0
0
0
0
0
0
0
0
0
0
0
0
0
0
0
0
0
0
0
0
0
0
0
0
0
0
0
0
0
0
0
0
0
0
0
0
0
0
0
0.00693137505
0.00760636475
0
0.00308093483
0
0
0
0
0
0
0
0
0
0
0
0
0
0
0
0
0
0
0
0
0
0
0
0
0
0
0
0
0
0
0
0
0
0
0
0
0
0
0
0
0
0
0
0
0
0
0
0
0
0
0
0
0
0
0
0
0
0
0
0
0
0
0
0
0
0
0
0
0
0
0
0
0
0
0.00330552107
0
0
0
7.50635309e-05
0.00493326387
0.000174514012
0
0
0
0
0
0
0
0
0
0
0
0
0
0
0
0
0
0
0
0
0
0
0
0
0
0
0
0
0
0
0
0
0
0
0
0
0
0
0
0
0
0
0
0
0
0
0
0
0
0
0
0
0
0
0
0
0
0
0
0
0
0
0
0
0
0
0
0
0
0
0
0
0
0
0
0.0104652544
0.0058053899
0
0.00257638966
0
0
0
0
0
0
0
0
0
0
0
0
0
0
0
0
0
0
0
0
0
0
0
0
0
0
0
0
0
0
0
0
0
0
0
0
0
0
0
0
0
0
0
0
0
0
0
0
0
0
0
0
0
0
0
0
0
0
0
0
0
0
0
0
0
0
0
0
0
0
0
0
0
0
0.00165271964
0
0
0
0.00216858949
0.00383432193
0
0
0
0
0
0
0
0
0
0
0
0
0
0
0
0
0
0
0
0
0
0
0
0
0
0
0
0
0
0
0
0
0
0
0
0
0
0
0
0
0
0
0
0
0
0
0
0
0
0
0
0
0
0
0
0
0
0
0
0
0
0
0
0
0
0
0
0
0
0
0
0
0
0
0
0
0.00632883148
0.00119729991
0
0.0043243187
0
0
0
0
0
0
0
0
0
0
0
0
0
0
0
0
0
0
0
0
0
0
0
0
0
0
0
0
0
0
0
0
0
0
0
0
0
0
0
0
0
0
0
0
0
0
0
0
0
0
0
0
0
0
0
0
0
0
0
0
0
0
0
0
0
0
0
0
0
0
0
0
0
0
0
0.00344778583
0
0
0
0.00355365373
0
0
0
0
0
0
0
0
0
0
0
0
0
0
0
0
0
0
0
0
0
0
0
0
0
0
0
0
0
0
0
0
0
0
0
0
0
0
0
0
0
0
0
0
0
0
0
0
0
0
0
0
0
0
0
0
0
0
0
0
0
0
0
0
0
0
0
0
0
0
0
0
0
0
0
0
0.00918750353
0.000638095314
0
0.00298528781
0
0
0
0
0
0
0
0
0
0
0
0
0
0
0
0
0
0
0
0
0
0
0
0
0
0
0
0
0
0
0
0
0
0
0
0
0
0
0
0
0
0
0
0
0
0
0
0
0
0
0
0
0
0
0
0
0
0
0
0
0
0
0
0
0
0
0
0
0
0
0
0
0.0142562366
0
0.00325848392
0
0
0
0.00408983258
0.00286141051
0
0
0
0
0
0
0
0
0
0
0
0
0
0
0
0
0
0
0
0
0
0
0
0
0
0
0
0
0
0
0
0
0
0
0
0
0
0
0
0
0
0
0
0
0
0
0
0
0
0
0
0
0
0
0
0
0
0
0
0
0
0
0
0
0
0
0
0
0
0
0
0
0.0136249159
0
0
0
0.00720368825
0
0
0.00247365834
0
0
0
0
0
0
0
0
0
0
0
0
0
0
0
0
0
0
0
0
0
0
0
0
0
0
0
0
0
0
0
0
0
0
0
0
0
0
0
0
0
0
0
0
0
0
0
0
0
0
0
0
0
0
0
0
0
0
0
0
0
0
0
0
0
0
0
0
0
0
0
0
0
0
0.00734821575
0
0
0
0.00576840962
0.00230268354
0
0
0
0
0
0
0
0
0
0
0
0
0
0
0
0
0
0
0
0
0
0
0
0
0
0
0
0
0
0
0
0
0
0
0
0
0
0
0
0
0
0
0
0
0
0
0
0
0
0
0
0
0
0
0
0
0
0
0
0
0
0
0
0
0
0
0
0
0
0
0
0
0
0
0
0.00265948402
0.0088000586
0
0
0.00300149905
0
0
0
0
0
0
0
0
0
0
0
0
0
0
0
0
0
0
0
0
0
0
0
0
0
0
0
0
0
0
0
0
0
0
0
0
0
0
0
0
0
0
0
0
0
0
0
0
0
0
0
0
0
0
0
0
0
0
0
0
0
0
0
0
0
0
0
0
0
0
0
0
0
0
0.0122788242
0
0.000760292674
0.00544058603
0.00659274247
0
0
0
0
0
0
0
0
0
0
0
0
0
0
0
0
0
0
0
0
0
0
0
0
0
0
0
0
0
0
0
0
0
0
0
0
0
0
0
0
0
0
0
0
0
0
0
0
0
0
0
0
0
0
0
0
0
0
0
0
0
0
0
0
0
0
0
0
0
0
0
0
0
0
0
0
0.00424769432
0
0
0
0.00483148384
0
0
0
0
0
0
5.79097359e-05
0
4.90866307e-05
0
0
0
0
0
0
0
0
0
0
0
0
0
0
0
0
0
0
0
0
0
0
0
0
0
0
0
0
0
0
0
0
0
0
0
0
0
0
0
0
0
0
0
0
0
0
0
0
0
0
0
0
0
0
0
0
0
0
0
0
0
0
0
0
0
0.0048339219
0
0
0
0.00306425278
0
0
0
0
0
5.40272156e-05
0
0.000195294469
0
0.000254710292
0
0.000146999941
0
0
0
0
0
0
0
0
0
0
0
0
0
0
0
0
0
0
0
0
0
0
0
0
0
0
0
0
0
0
0
0
0
0
0
0
0
0
0
0
0
0
0
0
0
0
0
0
0
0
0
0
0
0
0
0
0
0
0
0.023853899
0
0
0.0123563845
0.0025585744
0
0
0
0.00133818508
0.00551117547
0
0
0
0
4.31426778e-05
0
0.000205215287
0
0.00026480433
0
0.000111913739
0
0
0
0
0
0
0
0
0
0
0
0
0
0
0
0
0
0
0
0
0
0
0
0
0
0
0
0
0
0
0
0
0
0
0
0
0
0
0
0
0
0
0
0
0
0
0
0
0
0
0
0
0
0
0
0
0
0
0
0.00242868279
0
0
0.000460844869
0
0.00417717426
0
0
0.0028374365
0
0
0
0
0
2.74046732e-05
0
0.000162597514
0
0.000207190256
0
6.46790024e-05
0
0
0
0
0
0
0
0
0
0
0
0
0
0
0
0
0
0
0
0
0
0
0
0
0
0
0
0
0
0
0
0
0
0
0
0
0
0
0
0
0
0
0
0
0
0
0
0
0
0
0
0
0
0
0
0
0
0
0
0
0.00114121319
0
0.00791264562
0
0
0.00635607113
0
0
0.00330809866
0
0
1.74552374e-06
0
0.000179759173
0
0.000472340813
0
0.000669737618
0
0.000666142892
0
0.00041977803
0
0
0
0
0
0
0
0
0
0
0
0
0
0
0
0
0
0
0
0
0
0
0
0
0
0
0
0
0
0
0
0
0
0
0
0
0
0
0
0
0
0
0
0
0
0
0
0
0
0
0
0
0
0
0
0.00343912324
0
0.0114634816
0
0
0
0.00695581336
0.0097620064
0
0
0.00102120541
0
0
0
0
0
4.2100528e-05
0
0.000208441024
0
0.000272530761
0
0.000123546281
0
0
0
0
0
0
0
0
0
0
0
0
0
0
0
0
0
0
0
0
0
0
0
0
0
0
0
0
0
0
0
0
0
0
0
0
0
0
0
0
0
0
0
0
0
0
0
0
0
0
0
0
0
0
0
0
0
0.0231111209
0.00410651373
0
0
0
0
0
0
0.0103278344
0
0
0.00343102012
0
0
1.10175307e-06
0
0.000188292129
0
0.000498567853
0
0.00071143839
0
0.000716952346
0
0.000472868137
0
0
0
0
0
0
0
0
0
0
0
0
0
0
0
0
0
0
0
0
0
0
0
0
0
0
0
0
0
0
0
0
0
0
0
0
0
0
0
0
0
0
0
0
0
0
0
0
0
0
0
0
0
0
0.0205475805
0.0189683212
0
0.00747889404
0
0.015592135
0
0.0158574421
0.00554635565
0
0
0.00692430344
0
0
0
1.29514409e-05
0
0.000258250515
0
0.000637908184
0
0.000927268123
0
0.00102133097
0
0.000885380559
0
0.000510452555
0
0
0
0
0
0
0
0
0
0
0
0
0
0
0
0
0
0
0
0
0
0
0
0
0
0
0
0
0
0
0
0
0
0
0
0
0
0
0
0
0
0
0
0
0
0
0
0
0
0.062049863
0
0.0361438305
0.0235778051
0.0250788764
0.0173762291
0.00047534458
0.0328964369
0.022747057
0.021793298
0
0.00832951297
0.0147981497
0
0
0.00266387331
0
0
6.73121021e-06
0
0.000245500689
0
0.000630912158
0
0.000915170076
0
0.000979242876
0
0.000780437289
0
0.000302821334
0
0
0
0
0
0
0
0
0
0
0
0
0
0
0
0
0
0
0
0
0
0
0
0
0
0
0
0
0
0
0
0
0
0
0
0
0
0
0
0
0
0
0
0
0
0
0
0
0
0
0.0529199617
0.0283182007
0.0316385986
0.0337385897
0.0349859738
0.030841845
0.0462235971
0.0185468151
0
0.0099704906
0.00204368094
0
0.00146592406
0.00575717124
0
0
0
0
0
0.000169116166
0
0.000474747149
0
0.000673153338
0
0.000642762163
0
0.000334103199
0
0
0
0
0
0
0
0
0
0
0
0
0
0
0
0
0
0
0
0
0
0
0
0
0
0
0
0
0
0
0
0
0
0
0
0
0
0
0
0
0
0
0
0
0
0
0
0
0
0.0113635588
0
0
0.0470758391
0.0211778085
0.046095161
0.00353999408
0.0155669571
7.37551317e-05
0
0
0
0
0.0113955328
0.0024653501
0
0
0.00416521326
0
0
1.84978798e-05
0
0.000322926892
0
0.000793694561
0
0.00116122272
0
0.00130216632
0
0.00117740021
0
0.000779385199
0
9.59882588e-05
0
0
0
0
0
0
0
0
0
0
0
0
0
0
0
0
0
0
0
0
0
0
0
0
0
0
0
0
0
0
0
0
0
0
0
0
0
0
0
0
0
0
0
0
0.0876232807
0.100001067
0.0721593699
0.0258128728
0.0280259434
0.0788218436
0.0241270251
0.00991538147
0.00844853664
0
0.0126871034
0
0
0
0.00446877161
0.00102634541
0.00148764516
0.0084735228
0
0
0
1.79790929e-05
0
0.000299223685
0
0.000733645426
0
0.00106940116
0
0.00119010376
0
0.00105726278
0
0.000660639371
0
0
0
0
0
0
0
0
0
0
0
0
0
0
0
0
0
0
0
0
0
0
0
0
0
0
0
0
0
0
0
0
0
0
0
0
0
0
0
0
0
0
0
0
0
0
0
0
0.0593032088
0.0226981773
0.0703296345
0.0365197688
0.0758728607
0.0074724869
0.0181359464
0.0930293582
0
0
0.00805599254
0.0212533607
0.00841697809
0.00357701318
0
0.000973328365
0.00319884943
0
0
2.15561814e-05
0
0.000348131357
0
0.000849600775
0
0.00124830104
0
0.00141960752
0
0.00132569642
0
0.000961485086
0
0.000318396976
0
0
0
0
0
0
0
0
0
0
0
0
0
0
0
0
0
0
0
0
0
0
0
0
0
0
0
0
0
0
0
0
0
0
0
0
0
0
0
0
0
0
0
0
0
0
0.0560670051
0.0840536667
0.0752426271
0.0678406974
0.0691119384
0.0477242691
0.037019172
0.00404929395
0.0208721306
0.0294286899
0
0
0
0.00219859354
0.00402728421
0.00121928101
0
0
0
2.37679686e-05
0
0.000344990168
0
0.000835201928
0
0.00122509224
0
0.00139355401
0
0.00130295279
0
0.000946678084
0
0.000313582176
0
0
0
0
0
0
0
0
0
0
0
0
0
0
0
0
0
0
0
0
0
0
0
0
0
0
0
0
0
0
0
0
0
0
0
0
0
0
0
0
0
0
0.0618884555
0.0996484493
0.0922135406
0.066301835
0.0439349892
0.109091613
0.110380379
0.100552535
0.0735669269
0.0466212772
0.0143610564
0.0205563991
0.02884922
0
0
0.00726034517
0.00697342089
0.00248977511
0
0.00599698147
0.00479023886
0
0
4.49426705e-05
0
0.000462545441
0
0.00106702795
0
0.00157655838
0
0.001873944
0
0.0019298596
0
0.00174835343
0
0.00132750775
0
0.000636369107
0
0
0
0
0
0
0
0
0
0
0
0
0
0
0
0
0
0
0
0
0
0
0
0
0
0
0
0
0
0
0
0
0
0
0
0
0.0451240375
0.00781754991
0
0
0.0281641098
0.0833688825
0.109387638
0.100250967
0.0884637316
0.147515794
0.15288057
0.12761021
0.0741194469
0.0458998147
0.052285872
0
0.0322493529
0.0115995343
0
0
0
0
0.00524749519
0.00097594894
0
0
0
7.61631454e-05
0
0.000672349593
0
0.00149427673
0
0.00224724667
0
0.00283427602
0
0.00325595768
0
0.00356057143
0
0.00381287084
0
0.00408734724
0