/*--------------------------------*- C++ -*----------------------------------*\
| =========                 |                                                 |
| \\      /  F ield         | OpenFOAM: The Open Source CFD Toolbox           |
|  \\    /   O peration     | Version:  v2006                                 |
|   \\  /    A nd           | Website:  www.openfoam.com                      |
|    \\/     M anipulation  |                                                 |
\*---------------------------------------------------------------------------*/
FoamFile
{
    version     2.0;
    format      ascii;
    class       volScalarField;
    location    "0.0534000002";
    object      nut;
}
// * * * * * * * * * * * * * * * * * * * * * * * * * * * * * * * * * * * * * //

dimensions      [0 2 -1 0 0 0 0];


internalField   nonuniform List<scalar> 
14400
(
7.92399926e-06
0.000431905604
0.00056978763
0.000676197825
0.000772344308
0.00086631866
0.000961751246
0.00106006048
0.0011612401
0.00126433381
0.0013675231
0.00146859354
0.00156463291
0.00165179327
0.0017248835
0.00177703271
0.00180381979
0.00180064305
0.00176154186
0.00167919343
0.00154422271
0.00134511852
0.00106582452
0.000693419836
4.67804005e-05
4.78234088e-09
2.16901638e-10
8.52137903e-13
1.32888512e-10
3.66377763e-11
5.73234764e-12
1.00107879e-13
1.35718534e-11
2.73369562e-10
1.79511513e-06
3.52910281e-05
5.153244e-05
1.04149836e-05
6.6921221e-08
4.03624692e-06
4.4630405e-06
1.02562861e-05
8.98555427e-06
5.46009625e-07
5.5376208e-06
2.36589857e-05
3.29001826e-06
1.33665445e-06
3.04082514e-07
2.26381901e-09
7.30470596e-07
8.38172756e-07
1.3512073e-06
2.95130148e-06
3.07672355e-06
1.38265669e-06
3.86441107e-06
4.28388998e-06
1.01218646e-05
5.3750842e-06
4.81840344e-06
3.47148201e-06
3.06404524e-06
3.56954794e-06
3.38223604e-06
4.09554066e-06
3.75245123e-06
4.42538925e-06
2.8729835e-06
4.71625936e-06
2.85644531e-06
5.50176797e-06
2.22922335e-06
4.45713569e-06
4.69635125e-06
4.83473217e-06
4.78746208e-06
4.6930165e-06
4.67546618e-06
4.49543122e-06
3.30199003e-05
0.000712443284
0.000909428254
0.00105662411
0.00119156238
0.00133046612
0.00148262634
0.00165323825
0.00184487274
0.00205839512
0.00229353001
0.00254987818
0.00282785288
0.00312686378
0.00344537002
0.00377840185
0.00411954161
0.00446389299
0.00480486014
0.00513425296
0.00544193806
0.00571638186
0.00594421525
0.00610993044
0.00619510425
0.00618117008
0.00604373761
0.00575878962
0.00530198674
0.00465352982
0.00379390599
0.00268631215
0.00128865764
0.00014937113
6.9871785e-07
3.25131919e-09
1.53959684e-10
3.69888196e-05
0.000173852873
2.06505755e-06
2.24785205e-06
5.22710752e-07
3.81078176e-07
7.12838144e-06
1.35166578e-05
3.80662761e-06
3.30785008e-05
5.41989926e-05
7.74538797e-05
9.57728726e-05
1.95472624e-05
7.08236436e-06
3.9323909e-06
1.54874591e-06
2.73878258e-06
3.72773946e-06
3.24479685e-06
1.55308268e-06
5.19316732e-06
1.2861547e-05
1.3568095e-05
3.70618016e-06
7.1110622e-06
6.16221923e-06
4.02206913e-06
7.65068007e-06
3.49890635e-06
9.00782154e-06
5.38500541e-06
9.83068218e-06
4.0329976e-06
6.13134719e-06
1.56560377e-05
5.63071929e-06
4.99228137e-06
5.28683153e-06
5.22939872e-06
4.84419857e-06
4.83151123e-06
5.09449192e-06
3.19635514e-05
0.00070637698
0.000903846588
0.00105805875
0.00120361689
0.00135631104
0.00152490383
0.00171461095
0.00192876715
0.00216974978
0.00243933759
0.00273900605
0.00306973383
0.00343217473
0.00382626887
0.00425138421
0.00470589104
0.00518725456
0.00569162971
0.0062137559
0.00674663718
0.00728105261
0.00780545147
0.00830489103
0.00876138675
0.00915211234
0.00945056536
0.00962399364
0.00963591275
0.00944299325
0.00899969579
0.00825610343
0.00716897723
0.00572581289
0.00398036177
0.00193637109
1.13070537e-05
2.48284927e-13
5.29073929e-09
3.1071866e-05
1.83311793e-05
4.92611008e-05
3.11194546e-05
2.07506095e-05
4.73750914e-06
3.3256739e-06
3.12916213e-06
3.69322011e-07
4.78013355e-12
6.74817873e-09
6.53404169e-06
4.74770159e-05
4.80050042e-05
2.3291699e-05
2.5346035e-05
5.59411701e-05
1.74664652e-05
1.29467279e-05
3.38421705e-08
2.62047986e-08
1.16110537e-06
8.54788855e-06
5.168915e-06
7.12331617e-06
6.52091699e-06
4.32432724e-06
8.95809474e-06
4.25034855e-06
4.71797082e-06
2.34812585e-06
3.4803596e-06
1.96357815e-06
1.91406629e-06
4.15943344e-06
5.2713023e-06
4.25688972e-06
4.74735507e-06
4.78839045e-06
4.97807235e-06
4.58610686e-06
2.4141981e-05
0.000648792612
0.000832901707
0.00097906772
0.00112039893
0.00127158455
0.00144044106
0.00163155473
0.00184813288
0.00209277599
0.00236794114
0.00267593714
0.0030190508
0.00339926395
0.00381832623
0.00427735265
0.00477688979
0.00531645814
0.00589461186
0.00650847925
0.00715371904
0.00782407479
0.00851105162
0.0092035179
0.00988690493
0.0105429814
0.0111484025
0.0116749256
0.0120871467
0.0123435561
0.0123935061
0.0121799645
0.0116368774
0.010696762
0.00929467025
0.00738906969
0.00501475212
0.00230655291
0.00010631538
1.21870652e-07
2.51413503e-06
1.86002124e-09
3.44297034e-09
4.88286211e-07
3.9512455e-06
5.8094863e-11
1.27482798e-11
5.25543923e-09
4.95853503e-05
6.7862595e-05
2.69894954e-05
9.93099691e-09
6.96399456e-06
3.58386657e-05
2.44488602e-05
5.33581018e-10
6.23202439e-06
2.1606187e-05
2.67709427e-05
7.63981357e-07
8.11361698e-08
1.14004917e-06
3.89878291e-06
3.48005043e-06
7.86128803e-06
4.41368304e-06
3.01616893e-06
5.57134475e-06
2.6331712e-06
6.39356965e-06
1.41080402e-05
1.43541587e-06
3.05725482e-06
4.86482607e-06
4.46734391e-06
4.93695849e-06
4.62063756e-06
4.92005906e-06
4.80252107e-06
4.94344018e-06
1.87779041e-05
0.000600770266
0.000774014933
0.000914168196
0.00105292645
0.00120366256
0.00137301263
0.00156493482
0.00178229059
0.00202779146
0.00230405622
0.00261395711
0.00296026052
0.00334592897
0.00377351082
0.0042455266
0.0047636663
0.00532924278
0.00594227386
0.00660195301
0.0073057336
0.00804964518
0.00882751885
0.00963083124
0.0104482484
0.0112645755
0.0120609381
0.0128123726
0.0134891433
0.0140524804
0.014457697
0.0146476847
0.0145589005
0.0141131844
0.0132288854
0.0118161712
0.00980077355
0.00714235011
0.00396542638
0.000559052461
6.35616996e-12
2.46135392e-05
1.45999738e-06
1.83056592e-05
2.36349599e-05
8.6044807e-05
8.14475418e-05
0.000121967993
1.64452619e-05
3.38897594e-09
2.52478344e-10
2.26643266e-05
5.17496745e-09
5.01857549e-09
2.1366702e-09
9.40806053e-05
5.23444397e-08
1.00491874e-06
2.07079997e-05
8.06556382e-05
5.76979773e-05
3.06302919e-05
7.6837147e-06
4.38215761e-06
5.62942272e-06
1.58007549e-06
5.06434821e-06
3.96637683e-07
1.22676309e-05
2.16380334e-06
1.06790506e-05
1.34932325e-05
1.72498215e-05
5.50578766e-06
4.37546321e-06
4.74608418e-06
4.85740168e-06
5.02082686e-06
4.97827929e-06
4.8310438e-06
1.43876306e-05
0.000554426791
0.000717711497
0.000852782097
0.000989643014
0.00114011518
0.00130972884
0.0015018152
0.00171905943
0.00196412322
0.0022399176
0.00254951531
0.00289626593
0.00328352479
0.00371475979
0.00419313823
0.00472164384
0.00530253372
0.00593746352
0.00662686028
0.00737004358
0.00816458077
0.00900631942
0.00988876554
0.010802817
0.0117361908
0.0126725831
0.0135912472
0.014465323
0.0152618015
0.0159387895
0.0164462254
0.0167219092
0.0166936886
0.0162747765
0.0153694837
0.0138716133
0.0116809737
0.00872795423
0.00500876966
0.000203877603
2.30849821e-06
4.46027085e-05
2.57782302e-06
6.41490376e-10
7.97215485e-12
1.08132927e-13
5.55379568e-10
2.67863637e-05
7.93219491e-05
1.72440382e-05
4.50671192e-05
2.95092682e-05
5.9231234e-07
1.03918911e-05
1.13773436e-07
3.84158447e-08
3.58269931e-07
4.63164871e-10
2.49990852e-07
4.2058285e-06
5.00918883e-06
3.62613186e-06
5.69780715e-06
3.37658849e-06
7.90885742e-06
9.00346845e-06
8.55770282e-06
6.65663927e-06
2.74920814e-06
1.53315283e-06
7.71693929e-06
5.64905709e-07
4.99551593e-06
4.5961999e-06
4.62163743e-06
4.72851635e-06
4.70448388e-06
4.68689281e-06
4.64631094e-06
1.12306268e-05
0.000511029682
0.000665065023
0.000795782819
0.00093122182
0.00108141183
0.00125087937
0.00144243396
0.00165860212
0.00190216879
0.00217609673
0.00248387739
0.00282900919
0.00321554545
0.00364724894
0.00412835235
0.00466236137
0.00525301458
0.00590276283
0.00661388649
0.00738675802
0.00822100764
0.00911380644
0.0100607777
0.0110546201
0.012085198
0.0131389278
0.0141972534
0.0152374564
0.0162285888
0.0171346782
0.0179070681
0.0184912367
0.0188145138
0.0187978874
0.0183391927
0.0173316954
0.015646878
0.0131647123
0.00976449669
0.00530359163
0.000577187204
1.83139993e-05
3.93451077e-06
4.39816184e-05
9.67589312e-05
8.26564929e-05
0.000113743041
8.72202373e-08
1.43315408e-10
8.68153605e-06
8.69485285e-12
3.89600348e-05
0.000127840432
0.000138208394
5.12358565e-05
0.000118086308
3.30344492e-07
3.93024839e-05
2.23885013e-06
1.50110309e-09
1.99701181e-08
4.58605579e-06
5.79261932e-06
7.0969175e-06
9.96521019e-06
1.0050773e-05
1.01195299e-05
8.3013581e-06
2.62664672e-06
4.63893388e-06
1.46559868e-05
1.18427208e-05
5.09625016e-06
4.95448525e-06
5.33239943e-06
5.04521985e-06
4.76531071e-06
4.89787921e-06
4.83801536e-06
8.67094514e-06
0.000470705075
0.000616806526
0.000744325631
0.000878872416
0.00102881067
0.00119768654
0.00138795149
0.00160205729
0.00184277157
0.00211323838
0.00241696971
0.00275782676
0.00313993893
0.00356766519
0.00404544445
0.00457770712
0.00516863462
0.00582199547
0.00654080296
0.00732709957
0.00818153793
0.00910314987
0.0100888761
0.0111333057
0.012228093
0.0133615381
0.0145177533
0.015675906
0.0168090508
0.0178829354
0.0188545291
0.0196703919
0.020265011
0.0205587983
0.020456714
0.0198465689
0.0185997552
0.0165736534
0.0136182646
0.00959897404
0.00408565544
0.000308673627
1.40107878e-05
6.21011438e-08
1.13772403e-06
7.54212423e-08
1.34859541e-05
0.000132796385
7.87964591e-05
7.50034869e-05
0.000120302527
1.66227815e-09
3.4313287e-08
7.14564904e-10
5.04275362e-06
1.41917536e-07
2.57544028e-05
2.83867863e-05
5.01160069e-05
6.30295973e-05
8.58848984e-06
9.34784713e-06
3.03227383e-06
4.32889747e-06
1.44569881e-06
1.79809752e-06
1.79893359e-06
2.30702749e-06
1.05809753e-05
3.35019475e-06
1.52700491e-06
3.85999259e-06
4.49087711e-06
6.05997472e-06
5.3919908e-06
4.82748911e-06
4.70747474e-06
4.77442012e-06
4.69514285e-06
6.95064166e-06
0.000437818385
0.000578195344
0.000704444059
0.000839727567
0.000990655658
0.00116012246
0.00135031955
0.00156364811
0.00180300394
0.00207146229
0.00237283822
0.00271087273
0.0030901932
0.00351501601
0.00399057938
0.00452123296
0.0051123625
0.00576782279
0.00649231711
0.00728823454
0.00815836038
0.00910239362
0.0101196479
0.0112058005
0.0123548492
0.0135569193
0.0147982124
0.0160610506
0.0173200458
0.0185461225
0.0196967031
0.0207260399
0.0215668998
0.0221499775
0.0223744034
0.0221394837
0.0213024227
0.0197259206
0.0172278543
0.0136452196
0.00877237989
0.00234211659
0.000345614483
2.72644189e-07
2.13233861e-06
8.16800081e-06
1.08821543e-08
7.20762108e-11
2.52696383e-13
1.56988643e-11
1.2930681e-05
9.5341234e-05
1.74944007e-05
7.29162162e-05
3.8083041e-06
6.1300612e-06
5.70249635e-05
7.78817246e-11
1.91558857e-06
3.64302719e-08
4.39205888e-06
4.02933782e-06
2.59974595e-06
5.67481809e-06
2.75432066e-06
6.86933869e-06
2.64547211e-06
7.65047882e-06
1.98120308e-05
5.23169667e-06
4.56062654e-07
2.21352083e-06
4.44966837e-06
7.13049079e-06
5.05839583e-06
4.527653e-06
4.679006e-06
4.72859718e-06
4.85201936e-06
5.43289855e-06
0.000403965382
0.000539483012
0.000665069269
0.000801088399
0.000952673143
0.00112218162
0.0013117211
0.00152371902
0.00176110234
0.00202708827
0.00232551386
0.00266028985
0.0030360882
0.00345740156
0.0039295726
0.00445740021
0.00504651837
0.0057014712
0.00642744344
0.00722779913
0.00810611001
0.00906331105
0.0100998484
0.0112128156
0.0123977633
0.0136463828
0.0149470781
0.0162840061
0.0176350323
0.0189733935
0.0202612076
0.0214557171
0.0224959607
0.023316322
0.0238233482
0.0239200516
0.0234699979
0.022336536
0.0203340027
0.0172875589
0.0129586984
0.00687753881
0.00228424263
0.000478218564
0.000143969834
9.14313664e-05
0.000174140604
0.000147649073
0.000214588134
0.000210172716
6.91915804e-05
3.37985355e-05
0.000112864973
8.9761439e-05
1.72383529e-05
0.00015474866
2.20723247e-09
0.000106771747
4.63200873e-06
1.13292004e-05
9.80593425e-06
4.08034936e-06
6.08070817e-06
5.12375145e-06
7.39022039e-06
3.30191353e-06
5.0598543e-06
2.14305219e-06
2.28988737e-06
8.78849014e-06
7.7079195e-06
6.5585144e-06
5.17593947e-06
5.09342691e-06
4.59829406e-06
4.9368113e-06
4.7841757e-06
4.80001748e-06
4.8116396e-06
4.29578276e-06
0.000371840424
0.000503061615
0.000628416781
0.000765063335
0.000916844336
0.00108583871
0.00127412876
0.00148416395
0.00171906406
0.00198195303
0.00227698909
0.00260787801
0.00297981216
0.00339697275
0.00386551909
0.00438986334
0.0049768437
0.00563059223
0.00635795282
0.00716190046
0.00804809709
0.00901716027
0.0100718739
0.0112091841
0.0124268999
0.0137170248
0.0150697703
0.0164706706
0.0178985601
0.0193300046
0.0207267003
0.0220522198
0.0232429297
0.024243661
0.0249548008
0.0252947791
0.0251154337
0.0242997825
0.0226397795
0.0199797437
0.0160439137
0.0107059395
0.00308764309
1.62324866e-05
1.3429481e-12
9.12857322e-12
1.62394524e-11
4.4593558e-15
5.89006631e-12
9.85772501e-11
6.63688805e-11
1.15674652e-11
1.8229294e-12
6.7668006e-10
4.14906832e-05
2.48095354e-11
9.64295646e-05
4.93733388e-09
4.64137681e-05
3.33825446e-05
7.72037689e-06
3.16390351e-06
5.83216019e-06
1.84845386e-06
7.57910554e-06
2.09572067e-06
1.33045058e-05
2.468969e-06
2.3232387e-06
1.05009871e-05
3.43551167e-06
2.39267891e-06
5.17892249e-06
4.33218371e-06
3.93079922e-06
4.51700656e-06
4.55702947e-06
4.56169291e-06
4.69929575e-06
3.39863508e-06
0.0003425747
0.000470891837
0.000596947907
0.000734608654
0.00088664663
0.00105503498
0.00124189208
0.00144976701
0.00168181663
0.00194119451
0.00223211447
0.00255827139
0.00292497504
0.00333640724
0.003798963
0.00431713032
0.00489820615
0.00554654812
0.00626980418
0.00707140074
0.00795825238
0.00893167403
0.00999616442
0.0111495433
0.012391697
0.0137156056
0.0151138249
0.0165730793
0.0180748536
0.019597499
0.0211057321
0.0225659203
0.0239179101
0.0251106263
0.0260484
0.0266552907
0.0267875775
0.0263348151
0.0250936557
0.0229121863
0.0195227956
0.0148148969
0.00775284956
0.00208496888
0.00106901073
0.000350106026
0.000202604225
0.000181241282
0.00021125635
0.000267813576
0.000250177335
0.000209728772
0.000191230009
0.000202364535
1.11198436e-09
0.000172212143
3.65715657e-06
5.37926801e-05
5.5106288e-07
3.68127655e-08
1.54639554e-06
1.88838363e-06
6.9165955e-06
3.33080829e-06
5.89474477e-06
6.74423067e-06
4.86942751e-06
1.03566355e-05
2.19130923e-06
2.17093909e-06
8.86639239e-06
8.36849468e-06
4.97647481e-06
2.94979609e-06
3.82267387e-06
4.67146638e-06
4.81063834e-06
4.67636586e-06
4.74248331e-06
2.75519156e-06
0.000316942148
0.00044356795
0.000571221777
0.000710494551
0.000863340574
0.00103184441
0.00121818457
0.00142499026
0.00165552813
0.00191291671
0.00220151327
0.00252488041
0.00288855446
0.0032964976
0.00375547507
0.00426968556
0.00484700667
0.00549147395
0.00621161565
0.00701056555
0.00789650899
0.00887057562
0.00993896103
0.0110994751
0.0123540522
0.0136959054
0.0151198219
0.0166131385
0.0181596035
0.0197387464
0.021317576
0.0228644017
0.0243210755
0.0256391912
0.0267247401
0.0275038551
0.0278354463
0.0276068408
0.0266233987
0.024715724
0.0216545965
0.0172122452
0.0106035024
0.00260646929
0.000114152506
4.80117587e-12
6.65937234e-11
2.04550541e-12
3.31322313e-10
1.99337812e-06
9.60721324e-09
1.98461127e-11
3.95575869e-10
1.80219383e-10
0.000118306619
1.47499013e-06
1.29053237e-05
4.40316892e-05
1.96762127e-05
4.54418872e-05
1.41490803e-05
9.13512776e-06
6.81772271e-06
4.45115987e-06
6.17193358e-06
2.67289712e-06
7.00449988e-06
4.15382215e-06
4.34207321e-06
2.35865989e-06
5.89363051e-06
7.10695944e-06
3.97204667e-06
2.68147411e-06
4.74493086e-06
4.16709853e-06
4.79611117e-06
4.66123915e-06
4.61981257e-06
2.16597039e-06
0.000288551827
0.000413461178
0.000542324772
0.000682107408
0.000834582168
0.00100188364
0.00118639229
0.00139090952
0.00161863639
0.00187299157
0.00215804239
0.00247787517
0.00283750554
0.00324171967
0.00369652083
0.0042073184
0.00478097548
0.00542320931
0.00614130232
0.00694059698
0.00782787894
0.00880697851
0.00988272483
0.0110559202
0.0123275361
0.0136936613
0.0151491927
0.0166836434
0.0182830366
0.0199276459
0.0215904693
0.0232380237
0.0248240932
0.02629415
0.0275745737
0.028578684
0.029196518
0.0292919727
0.0287140146
0.0272453308
0.0247060276
0.0206636998
0.0149969219
0.00751885145
0.00320229448
0.000946112966
0.000303524594
0.000182350795
0.00013019459
0.000291086293
0.000178259943
0.0002710788
0.00016757704
0.000224254637
8.8183045e-07
3.39254625e-05
0.000130637743
2.74167212e-09
3.60891865e-06
8.54813577e-10
1.26336234e-06
3.45592693e-06
3.08699605e-06
6.88067727e-06
3.74503224e-06
6.07978978e-06
3.25360069e-06
3.81991231e-06
7.54813554e-06
5.08454873e-06
4.69402811e-06
6.04667521e-06
3.72978083e-06
3.01182948e-06
4.58992009e-06
4.5859304e-06
4.72019151e-06
4.65854854e-06
4.62333248e-06
1.72517317e-06
0.000262012166
0.000385628409
0.000515464524
0.000655181548
0.000806608914
0.000972014633
0.00115399825
0.00135544942
0.00157959959
0.00182999687
0.002110616
0.00242576836
0.00278030413
0.00317938529
0.00362879268
0.00413451777
0.0047031628
0.0053412967
0.00605591913
0.00685352506
0.0077406025
0.00872239076
0.00980339518
0.0109859207
0.0122705997
0.0136548589
0.0151333899
0.0166966203
0.0183309064
0.0200167956
0.0217288067
0.0234328554
0.0250862356
0.0266326525
0.0280048006
0.0291128533
0.0298562022
0.0300938921
0.0296840066
0.0284022997
0.0260675583
0.022260537
0.0168783006
0.00902509559
0.0019625986
0.000153971154
7.20717348e-07
1.82609221e-06
0.000182679757
3.38248557e-05
4.43829662e-05
1.48011989e-06
2.84372264e-05
9.26506571e-05
8.90347261e-05
0.000247800089
1.9043689e-07
0.000169282154
2.26422761e-05
6.46794701e-05
1.38030197e-05
7.30703634e-06
5.52754454e-06
5.15096188e-06
4.52715146e-06
4.3976763e-06
4.16000086e-06
2.48893227e-06
6.19552056e-06
1.85412617e-06
2.9448377e-06
4.85953078e-06
3.71195779e-06
4.45569327e-06
5.46011058e-06
4.65187106e-06
4.72227636e-06
4.72023278e-06
4.66445415e-06
1.37616532e-06
0.000237320949
0.000360624486
0.000491662467
0.000631306534
0.000781636919
0.000945103149
0.00112452993
0.00132288054
0.00154336987
0.00178968221
0.00206560094
0.00237573384
0.00272456031
0.00311776659
0.00356059261
0.00405986588
0.00462149319
0.00525329784
0.00596147205
0.00675429675
0.00763742166
0.00861845986
0.00970116258
0.0108906855
0.01218714
0.0135909194
0.0150966858
0.0166973965
0.0183804003
0.0201277374
0.0219167933
0.0237132915
0.025480213
0.0271586364
0.0286904007
0.0299800845
0.0309392542
0.0314194475
0.0312908395
0.0303261293
0.0283472819
0.0249932996
0.0201931431
0.013173424
0.00473226054
0.00118527483
0.000500336927
3.73145195e-05
3.30115003e-09
6.12270581e-07
1.57252126e-05
3.77818594e-05
1.15168735e-06
1.01619807e-08
6.32490504e-06
1.33977628e-07
9.88126666e-05
1.51112419e-10
1.0423077e-05
7.2515568e-07
1.79635329e-06
4.26848998e-06
3.13000356e-06
4.0565728e-06
4.4126307e-06
4.4673044e-06
7.16774372e-06
4.84292882e-06
7.45587108e-06
7.35919598e-06
1.42378735e-06
3.24518598e-06
3.97592431e-06
5.16368241e-06
5.7779749e-06
4.89949819e-06
4.65225215e-06
4.6289817e-06
4.54981207e-06
1.08621712e-06
0.000212019457
0.000334857886
0.000466433076
0.000605158474
0.000753597712
0.000914497814
0.00109083997
0.00128569229
0.00150233999
0.00174448894
0.00201600233
0.00232147864
0.00266553567
0.00305384154
0.00349185314
0.00398638908
0.00454367246
0.00517153619
0.0058765993
0.00666717832
0.00754945034
0.00853109339
0.00961645113
0.010810794
0.0121148438
0.0135292466
0.0150492716
0.0166684744
0.0183748259
0.0201516446
0.0219769581
0.0238188624
0.0256408975
0.0273880379
0.0290022819
0.0303940588
0.0314739422
0.0321022642
0.0321451569
0.0313929441
0.0296562265
0.0266391493
0.0221846438
0.0156986448
0.00635274307
0.00125936343
8.07310839e-05
3.62117633e-05
0.000112858958
0.000390951218
0.000319553125
0.000350792515
0.000235112078
0.00035122324
9.24289811e-05
0.000325680854
5.05883566e-06
0.00017505758
2.08864139e-06
6.07522059e-06
4.0759645e-06
3.75418857e-06
5.3214277e-06
5.18461645e-06
6.27185543e-06
5.34319969e-06
4.20777103e-06
3.96765301e-06
4.90673957e-06
1.78902234e-06
5.06239384e-06
3.43637089e-06
5.31112595e-06
6.56114694e-06
5.80627074e-06
5.04819869e-06
4.71603148e-06
4.67454619e-06
4.68327415e-06
8.55917158e-07
0.000187079329
0.000309256266
0.000440377202
0.000577060631
0.000722349321
0.000879206901
0.00105084275
0.00124034339
0.00145099821
0.00168658184
0.00195083495
0.00224856021
0.00258414321
0.00296366405
0.0033922543
0.00387743883
0.00442503643
0.00504399055
0.00574045144
0.00652434649
0.00740131783
0.00838116952
0.00946760191
0.0106683621
0.0119833703
0.0134157347
0.0149598846
0.0166114084
0.0183579267
0.0201840643
0.0220689341
0.0239809364
0.0258873543
0.0277320046
0.02946475
0.0309928322
0.0322406102
0.0330626311
0.033346855
0.0328751808
0.0314895022
0.0288831536
0.0248847726
0.0188782249
0.00999850508
0.00294737835
0.000905083024
0.000236101363
0.000293812719
1.4798916e-06
6.98514921e-10
6.4902277e-13
9.77663485e-10
5.0608492e-16
4.79942422e-05
6.8567705e-10
1.61939392e-05
2.34023952e-08
5.00752884e-06
3.2318285e-05
4.3508155e-06
3.14172346e-06
4.11552618e-06
4.16491129e-06
6.08873413e-06
5.23540818e-06
5.98631323e-06
5.21751673e-06
5.85098885e-06
9.15524774e-06
5.41509584e-06
3.75350332e-06
4.76749674e-06
7.51872176e-06
5.57645823e-06
4.95522008e-06
4.71633438e-06
4.57632559e-06
4.62635243e-06
7.30720362e-07
0.000168559609
0.00029163499
0.000423266487
0.00055904433
0.000702478059
0.000856799783
0.00102530563
0.00121110434
0.00141749458
0.00164819356
0.00190694727
0.00219845902
0.00252715616
0.00289900661
0.00331925998
0.00379535341
0.00433335972
0.00494222115
0.00562855196
0.00640244936
0.00727028921
0.00824228346
0.00932310322
0.0105211104
0.0118372142
0.0132751647
0.0148300323
0.0164978824
0.0182663737
0.020120489
0.022038809
0.0239902626
0.0259411305
0.0278364745
0.0296245335
0.0312155311
0.0325311783
0.0334330391
0.0338042306
0.0334418256
0.0321753489
0.0297209562
0.025848125
0.019984097
0.0116291719
0.00102116459
7.05645051e-05
9.02436267e-15
1.48713726e-07
0.000295877893
0.000305079722
0.000456567702
0.000274953603
0.000436237102
2.10194861e-08
0.00037748667
1.5837549e-05
7.83437815e-05
2.31531291e-05
3.26764574e-09
1.88236304e-06
3.40281805e-06
4.21277506e-06
4.91858028e-06
5.49185612e-06
5.5046537e-06
3.70847419e-06
3.37301464e-06
4.39885301e-06
3.20606998e-06
7.2975112e-06
4.22424994e-06
5.75342768e-06
8.19580741e-06
5.36912714e-06
5.0160816e-06
4.87453861e-06
4.63681116e-06
4.7406797e-06
6.25250969e-07
0.000150266234
0.00027398116
0.00040560411
0.000540002564
0.000681183469
0.000832547254
0.00099753682
0.00117926148
0.00138101907
0.00160650961
0.0018594076
0.00214444208
0.00246592347
0.00282993236
0.00324157658
0.00370856315
0.00423684021
0.00483588826
0.00551228437
0.00627709655
0.00713684441
0.00810332738
0.0091816019
0.0103823202
0.0117069307
0.0131619977
0.0147430143
0.0164489453
0.0182675761
0.0201865089
0.0221844313
0.024232531
0.0262976661
0.0283265441
0.0302689368
0.0320355699
0.033550993
0.034676154
0.0352981701
0.0352136402
0.0342532264
0.0321353468
0.0285955099
0.0231560744
0.0155872565
0.00485379726
0.00185795202
0.000546014785
9.43381479e-05
1.39274344e-09
1.49197777e-06
2.84089042e-10
1.30420841e-10
1.44346039e-08
0.000117229296
1.25943668e-05
6.43563461e-05
0.000134346539
3.19338747e-05
4.32609419e-05
1.59573595e-05
6.77757193e-06
5.48379543e-06
6.33382371e-06
4.94616281e-06
5.5682484e-06
4.32316093e-06
7.41121034e-06
3.66306433e-06
8.06435922e-06
9.00878482e-06
4.98203408e-06
5.46822277e-06
7.63552141e-06
4.58642791e-06
4.67097286e-06
4.7390352e-06
4.67331657e-06
4.74506525e-06
6.07001405e-07
0.000134959441
0.000260098632
0.000392007932
0.000525598264
0.000665179143
0.000814426515
0.000976824365
0.00115550514
0.00135376475
0.00157520418
0.00182354159
0.0021032924
0.00241889141
0.00277608372
0.00318022564
0.00363855822
0.00415746587
0.00474583882
0.0054109789
0.00616328055
0.00701041105
0.0079635061
0.00902931481
0.0102179661
0.011533133
0.0129811025
0.0145598158
0.0162682724
0.0180963555
0.0200322515
0.0220558424
0.0241401042
0.0262517787
0.0283415566
0.0303570967
0.0322163155
0.033838659
0.0350960728
0.0358665181
0.0359612652
0.0351948498
0.0333033046
0.0299877647
0.0248758581
0.0176545875
0.00742302544
0.00118335456
0.000217847256
0.000297636426
0.000384957146
0.000378842617
0.000528037635
0.00028560725
0.000532313623
2.34567135e-06
7.94232378e-05
1.66580669e-07
4.6344935e-11
5.75008034e-07
1.1599642e-10
3.72661908e-06
5.61276766e-06
4.40312879e-06
6.79539716e-06
3.31809687e-06
4.97738501e-06
3.80911411e-06
5.82203596e-06
3.60991989e-06
3.01420882e-06
6.0155623e-06
5.63900809e-06
6.1974622e-06
6.34697489e-06
3.78239546e-06
4.73575695e-06
4.78737655e-06
4.71278108e-06
4.81439136e-06
6.17142232e-07
0.000119418674
0.000245299175
0.000376874323
0.00050912808
0.000646747108
0.000793558793
0.000953163655
0.00112869858
0.00132347422
0.00154108635
0.00178519585
0.00206034965
0.0023708621
0.00272256563
0.00312062753
0.00357245918
0.00408418415
0.00466499422
0.00532187222
0.00606573075
0.00690391218
0.00784842223
0.00890578402
0.0100875093
0.0113972691
0.0128433132
0.0144238604
0.0161402641
0.0179829837
0.0199425008
0.0219995825
0.0241291423
0.0262993399
0.0284622651
0.0305677623
0.032534517
0.0342850499
0.0356917842
0.0366368237
0.0369335629
0.0364018856
0.0347830576
0.0317939102
0.027109764
0.0204752833
0.0107840363
0.00365672831
3.60069388e-07
0.000148200926
2.15192827e-05
1.23436278e-08
1.69175854e-05
1.30082402e-06
1.64234259e-05
0.000104979241
0.00042163844
3.87999666e-06
0.000250269337
8.98934481e-07
6.91104035e-05
2.2571644e-05
7.74057362e-06
7.48187654e-06
5.92203804e-06
4.04217303e-06
5.29116903e-06
3.63817605e-06
7.81503061e-06
3.61715856e-06
6.21708759e-06
1.0887214e-05
5.38417506e-06
5.68584678e-06
5.58797004e-06
3.48884236e-06
4.37550227e-06
4.60795992e-06
4.78511362e-06
4.83706003e-06
5.79013607e-07
0.00010274143
0.000228105349
0.00035817378
0.000488224858
0.000622981097
0.000766541112
0.000922532353
0.00109417591
0.00128479993
0.0014979553
0.00173741139
0.00200755298
0.00231292473
0.00265905955
0.0030515085
0.00349720616
0.00400284782
0.00457691159
0.00522718158
0.00596355252
0.00679444917
0.00773051557
0.00877970863
0.00995190374
0.011252647
0.0126885675
0.014260244
0.0159679845
0.0178048389
0.0197615562
0.0218211661
0.0239608646
0.0261497898
0.0283451926
0.0304952209
0.0325272701
0.0343574874
0.035871079
0.036937295
0.0373857738
0.0370141318
0.0355954475
0.0328009071
0.0284221632
0.0219747662
0.0125334706
0.00256994301
0.00106508528
0.000193531896
0.000250909419
0.000401210233
0.000202544553
0.000109935972
0.000167395702
6.17274302e-08
4.95058164e-10
0.00012858989
4.18469538e-10
6.2656448e-05
6.55835085e-08
6.23004818e-06
6.95122012e-06
5.12472749e-06
4.9627594e-06
4.25863536e-06
4.41658218e-06
4.53907105e-06
5.9685775e-06
4.33256401e-06
3.55075142e-06
7.91127217e-06
5.01455565e-06
6.08545798e-06
4.40714662e-06
3.07767396e-06
4.47261028e-06
4.65654545e-06
4.73423441e-06
4.78657691e-06
5.18435497e-07
8.69219439e-05
0.000210678198
0.000338438627
0.000465552248
0.000596734427
0.000736192644
0.000887638759
0.00105430062
0.00123952703
0.00144686698
0.00168008674
0.00194360428
0.00224196904
0.00258081867
0.00296573763
0.0034038765
0.00390201291
0.00446899702
0.00511275509
0.00584374252
0.00667057767
0.0076046303
0.00865404926
0.0098294883
0.0111365988
0.0125826712
0.0141682791
0.0158942005
0.0177536433
0.0197377379
0.0218304378
0.0240093708
0.0262461101
0.0284982465
0.0307185661
0.032834159
0.0347687068
0.0364050537
0.0376228322
0.038245857
0.0380866213
0.036902565
0.034398877
0.0303320005
0.0241961984
0.0150714224
0.00417916623
0.000562214124
4.24926229e-06
3.59402226e-06
4.32101858e-06
0.000508516773
0.000167852314
0.000561681365
0.000211995942
0.000545982241
5.19901542e-06
0.00028650592
1.78225111e-06
4.73190185e-05
1.08978109e-05
8.43224352e-06
6.72314998e-06
5.13614298e-06
4.68240791e-06
4.58962368e-06
4.08044672e-06
6.32223979e-06
3.3694799e-06
6.55101755e-06
9.143635e-06
5.21957686e-06
6.30340249e-06
3.40681494e-06
3.51879766e-06
4.37742872e-06
4.58264557e-06
4.76621563e-06
4.77764189e-06
4.60084504e-07
7.22932261e-05
0.000193390604
0.000318331371
0.000442269133
0.000569659992
0.000704837015
0.000851527535
0.00101300669
0.00119261022
0.00139385097
0.00162052561
0.00187695715
0.00216779981
0.00249854338
0.00287498646
0.00330407763
0.00379296356
0.00435023701
0.00498440674
0.005705619
0.0065233409
0.00744860111
0.00849068542
0.00965989618
0.010963227
0.0124076308
0.0139950382
0.015725981
0.0175947815
0.0195927604
0.0217045359
0.0239090346
0.0261778568
0.0284718147
0.0307427656
0.0329238343
0.0349360906
0.0366719674
0.0380059003
0.0387741772
0.0387824511
0.0378016482
0.0355364546
0.0317396337
0.0258821477
0.0172532425
0.00514757821
0.00129926656
0.000158990324
0.000250976044
0.000390404074
1.34070529e-10
9.91195342e-07
1.01368142e-08
1.47090339e-08
3.20519704e-10
5.60221225e-05
1.93445003e-08
1.71409721e-05
2.51765878e-06
3.86795146e-06
5.66183184e-06
5.72148896e-06
3.31780321e-06
4.58177047e-06
3.70603876e-06
4.81770831e-06
6.06100958e-06
4.50890903e-06
5.29146971e-06
4.25796971e-06
5.99216606e-06
4.71209666e-06
2.83483689e-06
3.28700947e-06
4.52077303e-06
4.69552401e-06
4.73295806e-06
4.7135682e-06
3.92487944e-07
5.70704176e-05
0.000173460363
0.00029453606
0.00041463736
0.000537653171
0.000667967758
0.000809370766
0.000965174962
0.00113873668
0.00133357508
0.00155350564
0.00180286145
0.00208634286
0.00240947229
0.00277814167
0.00319937012
0.00368046513
0.00423014334
0.00485716748
0.00557187231
0.00638409636
0.00730513091
0.00834477836
0.00951373141
0.0108196509
0.0122700572
0.0138677031
0.0156139138
0.0175040314
0.0195305233
0.0216792789
0.0239308734
0.0262584785
0.0286251773
0.0309847482
0.033273321
0.0354144047
0.0373042177
0.038820283
0.0398034474
0.0400618168
0.039368455
0.0374220928
0.0339618836
0.0284069665
0.0201887264
0.00794268017
0.00109521815
0.000843641245
0.000530826183
9.10017947e-05