/*--------------------------------*- C++ -*----------------------------------*\
| =========                 |                                                 |
| \\      /  F ield         | OpenFOAM: The Open Source CFD Toolbox           |
|  \\    /   O peration     | Version:  v2006                                 |
|   \\  /    A nd           | Website:  www.openfoam.com                      |
|    \\/     M anipulation  |                                                 |
\*---------------------------------------------------------------------------*/
FoamFile
{
    version     2.0;
    format      ascii;
    class       volScalarField;
    location    "0.0534000002";
    object      nuTilda;
}
// * * * * * * * * * * * * * * * * * * * * * * * * * * * * * * * * * * * * * //

dimensions      [0 2 -1 0 0 0 0];


internalField   nonuniform List<scalar> 
14400
(
8.85896368e-05
0.000461814674
0.000588482993
0.000689734734
0.000782753957
0.00087455392
0.000968385586
0.00106546167
0.00116569306
0.00126803751
0.00137064945
0.00147126077
0.00156695061
0.00165383593
0.00172672917
0.00177873807
0.00180544873
0.00180224361
0.00176318586
0.001680962
0.00154627542
0.00134775699
0.00106992852
0.000702634059
0.000134159876
1.19854357e-05
5.46394255e-06
1.36094812e-06
4.7838218e-06
3.47250807e-06
2.1846408e-06
7.99340654e-07
2.73667124e-06
5.84042737e-06
5.32431495e-05
0.000121223803
0.000136764813
8.40381358e-05
2.31101262e-05
6.53439127e-05
6.7124763e-05
8.38837211e-05
8.09467411e-05
3.91294543e-05
7.10572533e-05
0.000106558795
6.1946354e-05
4.91239802e-05
3.37716218e-05
9.90316527e-06
4.21578791e-05
4.36704644e-05
4.93027262e-05
6.02936568e-05
6.0942075e-05
4.96249438e-05
6.47038943e-05
6.65086709e-05
8.37668228e-05
7.06527464e-05
6.86614697e-05
6.30468582e-05
6.10385339e-05
6.36070483e-05
6.27007179e-05
6.60483375e-05
6.4504258e-05
6.75520067e-05
6.02799649e-05
6.88992064e-05
6.02530247e-05
7.19562787e-05
5.65613209e-05
6.8320408e-05
6.90567169e-05
6.99617706e-05
6.98991046e-05
6.9618425e-05
6.95409508e-05
6.91103939e-05
0.000133384678
0.00072563371
0.000917667551
0.00106272649
0.00119634442
0.00133427621
0.00148567662
0.00165566922
0.00184681159
0.00205993569
0.00229476163
0.00255086221
0.00282864655
0.00312750383
0.00344589265
0.0037788296
0.00411989804
0.00446419121
0.00480511479
0.00513447157
0.00544213024
0.00571655212
0.0059443704
0.00611007353
0.00619524096
0.00618130337
0.00604387408
0.00575893502
0.0053021543
0.00465374008
0.00379421538
0.00268691062
0.00129120331
0.000213309279
4.14319092e-05
1.08506953e-05
5.09744431e-06
0.000123089528
0.000232790969
5.51837991e-05
5.63115506e-05
3.88979732e-05
3.58736393e-05
7.64022228e-05
9.08623257e-05
6.4711633e-05
0.00011853514
0.000139892585
0.000159599721
0.000174209129
0.000101107688
7.62575166e-05
6.51844276e-05
5.12992009e-05
5.93402532e-05
6.43713891e-05
6.20422733e-05
5.13610072e-05
7.02022991e-05
8.9888246e-05
9.11985755e-05
6.43084631e-05
7.64191961e-05
7.35407548e-05
6.57491858e-05
7.79662826e-05
6.34636311e-05
8.15023842e-05
7.11252922e-05
8.32591072e-05
6.59468512e-05
7.29470172e-05
9.50390571e-05
7.17480041e-05
6.93202845e-05
7.01637008e-05
7.00437409e-05
6.88621482e-05
6.877278e-05
6.99603023e-05
0.000132276539
0.000719894924
0.000912265226
0.00106421765
0.00120835975
0.00136003417
0.00152782792
0.00171691375
0.0019305698
0.00217116761
0.00244044678
0.0027398817
0.00307042203
0.00343272271
0.00382670343
0.00425173457
0.00470617238
0.00518748498
0.00569181767
0.00621391275
0.00674676757
0.00728116385
0.00780554609
0.00830497396
0.0087614594
0.00915217827
0.00945062544
0.00962405085
0.00963596801
0.0094430499
0.00899975594
0.00825617359
0.00716906675
0.0057259505
0.00398063614
0.00193752
8.6132575e-05
1.02047569e-06
1.22794794e-05
0.000116461561
9.91219513e-05
0.000135440988
0.0001161292
0.000103152614
6.83770146e-05
6.25140089e-05
6.14200188e-05
3.57135632e-05
2.12937968e-06
1.30869851e-05
7.44619915e-05
0.000133701246
0.000133923822
0.000106656277
0.000109195202
0.000141597632
9.78573603e-05
9.00509172e-05
1.95719291e-05
1.83817466e-05
4.76596461e-05
8.03730554e-05
7.01945896e-05
7.65577007e-05
7.47320034e-05
6.71109377e-05
8.14531839e-05
6.69076756e-05
6.86693808e-05
5.75238959e-05
6.34476398e-05
5.52482939e-05
5.43256714e-05
6.63249411e-05
7.11184934e-05
6.72770886e-05
6.91129141e-05
6.934764e-05
7.01335372e-05
6.90279943e-05
0.000122433117
0.000665003633
0.000843026975
0.000986433752
0.00112602469
0.00127593571
0.0014438202
0.00163417083
0.00185016215
0.00209434499
0.0023691603
0.00267688232
0.00301978934
0.00339984003
0.00381878029
0.00427771004
0.00477717471
0.00531668504
0.00589479533
0.00650862749
0.00715384094
0.00782417502
0.00851113569
0.00920358847
0.00988696556
0.0105430336
0.0111484487
0.0116749667
0.0120871846
0.0123435915
0.0123935406
0.0121799992
0.0116369147
0.0106968047
0.00929472565
0.00738915441
0.00501493278
0.00230738566
0.000183100874
2.71577226e-05
5.8417834e-05
9.54375188e-06
1.11044437e-05
3.84856814e-05
6.56801751e-05
4.00537252e-06
2.73793671e-06
1.23674159e-05
0.000136321117
0.000152805705
0.000112068904
1.4511892e-05
7.63624068e-05
0.000122607033
0.000108783773
6.98699062e-06
7.4152285e-05
0.000104940479
0.000111835198
4.31711721e-05
2.45310029e-05
4.77894119e-05
6.55339621e-05
6.3661778e-05
7.89338748e-05
6.77099842e-05
6.12838439e-05
7.19383254e-05
5.91312471e-05
7.44558254e-05
9.25796076e-05
5.03120141e-05
6.15237075e-05
6.94153061e-05
6.74735645e-05
6.9662484e-05
6.83518965e-05
6.96546417e-05
6.90617344e-05
6.9780762e-05
0.000114305347
0.000619641344
0.000785824038
0.000922719441
0.00105937621
0.00120859813
0.00137678422
0.00156783164
0.00178450397
0.00202949681
0.00230536234
0.00261496948
0.00296103957
0.00334653767
0.00377398229
0.00424589862
0.0047639569
0.0053294748
0.00594245705
0.00660210138
0.0073058523
0.00804974294
0.00882759833
0.00963089798
0.0104483037
0.011264623
0.0120609785
0.0128124083
0.0134891745
0.0140525091
0.0144577232
0.0146477101
0.0145589252
0.0141132105
0.013228914
0.0118162065
0.00980082276
0.00714244172
0.0039657121
0.000572483122
2.3038691e-06
0.00010947317
5.09292389e-05
0.000100271025
0.000107812448
0.000168152508
0.000163950715
0.000195555844
9.69781249e-05
1.11176478e-05
5.79475195e-06
0.000106728496
1.23320047e-05
1.22709957e-05
9.88605288e-06
0.000174300909
2.20062243e-05
4.64166352e-05
0.000103751975
0.000163765803
0.00014412983
0.000117043332
7.8629958e-05
6.78717512e-05
7.23742182e-05
5.21424327e-05
7.0363388e-05
3.67243433e-05
8.94372876e-05
5.64837772e-05
8.61099318e-05
9.17497105e-05
9.87772533e-05
7.17621008e-05
6.76017304e-05
6.87479126e-05
6.91033679e-05
6.9908544e-05
6.95953388e-05
6.92073529e-05
0.000106582581
0.000576508429
0.000731577197
0.000862742812
0.000997077077
0.00114571349
0.00131396456
0.0015050198
0.00172149586
0.00196597542
0.00224133515
0.00255059958
0.00289710203
0.00328416867
0.00371526039
0.0041935267
0.00472194871
0.00530277247
0.00593765298
0.00662701033
0.00737016425
0.00816467765
0.00900639858
0.00988883015
0.0108028708
0.0117362355
0.0126726212
0.0135912797
0.0144653514
0.0152618265
0.0159388122
0.0164462462
0.016721929
0.0166937079
0.0162747964
0.0153695054
0.0138716394
0.0116810093
0.00872801665
0.00500895321
0.000258184144
5.74242044e-05
0.000132479439
5.9161821e-05
7.35808113e-06
2.45009856e-06
8.38972725e-07
7.08612878e-06
0.000112593517
0.000162852295
9.8895909e-05
0.00013277584
0.000116059161
4.06769074e-05
8.58112031e-05
2.68580388e-05
2.04972014e-05
3.58555221e-05
6.7880287e-06
3.27386506e-05
6.73129093e-05
7.0448279e-05
6.47159869e-05
7.29037855e-05
6.3485496e-05
7.96082011e-05
8.23146303e-05
8.1343715e-05
7.58060199e-05
6.02736346e-05
5.16953074e-05
7.93043026e-05
4.01293281e-05
7.05238231e-05
6.87602022e-05
6.95131035e-05
6.95705037e-05
6.95806057e-05
6.94825439e-05
6.92127001e-05
9.93271062e-05
0.000536112382
0.00068085176
0.000807044322
0.000939497384
0.00108757472
0.00125546592
0.00144588439
0.00166118775
0.00190413419
0.00217757994
0.00248501634
0.00282987416
0.00321621606
0.00364776126
0.00412875339
0.0046626697
0.0052532585
0.00590295182
0.00661403784
0.00738687644
0.00822110386
0.00911388267
0.0100608407
0.0110546707
0.0120852408
0.0131389628
0.0141972836
0.0152374818
0.0162286113
0.0171346976
0.017907086
0.0184912528
0.0188145294
0.0187979024
0.0183392084
0.0173317122
0.0156468985
0.0131647398
0.00976454663
0.00530375293
0.000590034503
0.000100102567
6.60853038e-05
0.000131522571
0.000176681827
0.000165219071
0.000189663567
2.50515755e-05
5.05244823e-06
8.13562105e-05
2.50849209e-06
0.000126259168
0.000200290806
0.000207744888
0.000138692073
0.000192665325
3.51018624e-05
0.000126661782
5.70786943e-05
9.07979401e-06
1.73774445e-05
6.87054451e-05
7.32228758e-05
7.71682213e-05
8.47714981e-05
8.48368813e-05
8.51075677e-05
8.05248068e-05
5.95252246e-05
6.89833575e-05
9.42158735e-05
8.85517681e-05
7.07552835e-05
6.98938039e-05
7.09432176e-05
7.01460217e-05
6.90494997e-05
6.96390015e-05
6.93222575e-05
9.27665616e-05
0.000499475025
0.000634988942
0.000757161531
0.000888189797
0.0010356392
0.00120272561
0.00139169351
0.00160485454
0.00184487438
0.00211482828
0.00241817714
0.00275874819
0.00314064458
0.00356820799
0.00404586331
0.00457803184
0.00516888721
0.00582219299
0.00654095806
0.00732722214
0.0081816353
0.00910322782
0.0100889389
0.0111333568
0.0122281348
0.0133615728
0.0145177823
0.0156759306
0.0168090719
0.0178829538
0.0188545453
0.0196704066
0.0202650246
0.0205588113
0.0204567268
0.0198465821
0.0185997699
0.0165736715
0.0136182907
0.00959902503
0.00408592888
0.000343557479
9.28523313e-05
2.30772056e-05
4.80075603e-05
2.42358402e-05
9.20386698e-05
0.000204149358
0.000162393423
0.000159477209
0.000194530242
9.33568236e-06
1.98831919e-05
7.55667552e-06
7.05148496e-05
2.84001067e-05
0.000111173063
0.000114493386
0.000137759684
0.000149283177
8.1417725e-05
8.31687509e-05
6.17917479e-05
6.76748228e-05
5.1078797e-05
5.38610205e-05
5.39951954e-05
5.73790236e-05
8.61397143e-05
6.32024538e-05
5.17979093e-05
6.56145812e-05
6.83379505e-05
7.42285108e-05
7.20470326e-05
6.99114011e-05
6.93385595e-05
6.97361364e-05
6.93668752e-05
8.75012629e-05
0.000470012759
0.000598571622
0.000718689002
0.00084988794
0.00099802913
0.00116547856
0.00135428914
0.00156657473
0.00180521372
0.00207310944
0.00237410072
0.00271182067
0.0030909287
0.00351557105
0.00399101473
0.0045215629
0.0051126241
0.00576802199
0.00649247693
0.00728835701
0.00815845997
0.00910247061
0.0101197115
0.0112058502
0.012354891
0.0135569525
0.0147982409
0.0160610737
0.0173200661
0.0185461393
0.0196967185
0.020726053
0.0215669122
0.0221499885
0.0223744145
0.0221394943
0.0213024343
0.0197259333
0.0172278712
0.0136452447
0.0087724416
0.00234293126
0.000375562558
3.33152902e-05
5.63729101e-05
7.99599878e-05
1.49369645e-05
4.24425906e-06
1.03672736e-06
2.8993308e-06
9.10762414e-05
0.000175181434
9.92696329e-05
0.000157339971
6.55721979e-05
7.41228239e-05
0.00014413238
4.33239485e-06
5.48881434e-05
2.01575837e-05
6.80876245e-05
6.64416001e-05
5.94300673e-05
7.27585412e-05
6.03879881e-05
7.65750473e-05
5.98345829e-05
7.88785199e-05
0.00010316568
7.12677488e-05
3.82302333e-05
5.69282699e-05
6.85551698e-05
7.7433637e-05
7.04218844e-05
6.88661653e-05
6.91510822e-05
6.93440298e-05
6.99063231e-05
8.22285105e-05
0.000440481749
0.000562645576
0.00068104946
0.000812321133
0.000960707556
0.00112796661
0.00131596726
0.0015268385
0.00176344091
0.00202883079
0.00232684083
0.00266128776
0.00303685728
0.00345798357
0.00393002568
0.00445774481
0.00504678924
0.0057016783
0.00642760794
0.00722792571
0.00810621178
0.00906339004
0.0100999128
0.0112128662
0.0123978053
0.0136464162
0.0149471064
0.016284029
0.0176350521
0.0189734099
0.0202612222
0.0214557296
0.0224959722
0.0233163322
0.0238233582
0.0239200609
0.0234700077
0.0223365462
0.0203340151
0.017287575
0.0129587273
0.00687763586
0.00228512589
0.000496001779
0.000212838614
0.000172337059
0.000235514485
0.000214890565
0.000266671748
0.000262671478
0.000154959528
0.000120766626
0.000189430366
0.000171085825
9.9055263e-05
0.000220366612
1.00541853e-05
0.000184291919
6.92253638e-05
8.77006234e-05
8.46327978e-05
6.66463551e-05
7.44190779e-05
7.07842842e-05
7.83910646e-05
6.30885502e-05
7.08552105e-05
5.64720511e-05
5.76035285e-05
8.19635998e-05
7.90910768e-05
7.60107918e-05
7.07308851e-05
7.10974238e-05
6.86592933e-05
7.00558661e-05
6.94649666e-05
6.93769934e-05
6.9398996e-05
7.72281217e-05
0.00041254851
0.000528904444
0.000646030445
0.000777219682
0.000925467839
0.00109195378
0.00127861973
0.00148741612
0.00172151965
0.00198375343
0.00227837728
0.00260890197
0.00298061484
0.0033975662
0.00386599097
0.00439021245
0.00497712507
0.00563080052
0.00635812309
0.00716202672
0.00804820192
0.0090172383
0.0100719398
0.0112092335
0.0124269425
0.013717057
0.0150697987
0.0164706924
0.0178985798
0.01933002
0.0207267147
0.0220522313
0.0232429408
0.0242436702
0.0249548101
0.0252947872
0.0251154426
0.0242997909
0.0226397899
0.0199797554
0.0160439333
0.0107059784
0.00308813706
9.63018486e-05
1.57863739e-06
2.52318945e-06
2.94515632e-06
3.75261883e-07
2.28712528e-06
4.57733091e-06
4.18952178e-06
2.6792757e-06
1.70564212e-06
7.41342319e-06
0.000129769022
3.24574565e-06
0.000176924191
1.21966905e-05
0.000134514061
0.000120085615
7.9286354e-05
6.22994936e-05
7.35294279e-05
5.43444089e-05
7.88420971e-05
5.62192529e-05
9.19060341e-05
5.87483418e-05
5.7767025e-05
8.63583474e-05
6.37730298e-05
5.83092512e-05
7.14415017e-05
6.80796681e-05
6.65094888e-05
6.90378718e-05
6.90994206e-05
6.91815799e-05
6.96321904e-05
7.28808613e-05
0.000388131041
0.000499864388
0.000616421137
0.000747848456
0.000895939831
0.00106156689
0.00124666821
0.0014532068
0.00168441141
0.00194308869
0.00223357648
0.00255934511
0.00292581867
0.00333702789
0.00379945807
0.00431749441
0.00489850069
0.00554676457
0.00626998184
0.00707153131
0.00795836125
0.00893175421
0.00999623247
0.0111495937
0.0123917406
0.0137156381
0.0151138537
0.016573101
0.0180748734
0.0195975141
0.0211057463
0.0225659314
0.0239179209
0.025110635
0.0260484088
0.026655298
0.0267875855
0.0263348223
0.0250936644
0.0229121954
0.0195228092
0.0148149175
0.00775292995
0.00208599258
0.00107307373
0.000378708307
0.000257877714
0.000239637875
0.000264491551
0.000308422541
0.000295406348
0.000261875509
0.00024888467
0.000256236389
8.47056729e-06
0.000233238426
6.51114404e-05
0.000140840503
4.01016936e-05
2.02286955e-05
5.20678646e-05
5.46894421e-05
7.68526921e-05
6.33615289e-05
7.35455847e-05
7.64237208e-05
6.98175175e-05
8.59687657e-05
5.66716101e-05
5.6968255e-05
8.20707059e-05
8.12326983e-05
7.02200163e-05
6.15535546e-05
6.55764388e-05
6.90148057e-05
6.9599786e-05
6.92132315e-05
6.93678978e-05
6.9130045e-05
0.000367036042
0.000475423559
0.000592325124
0.000724616836
0.000873167494
0.00103867995
0.00122317467
0.00142855385
0.00165822411
0.00191486745
0.00220302828
0.00252598168
0.00288942751
0.00329713207
0.00375598697
0.00427005662
0.00484731098
0.00549169385
0.00621179898
0.00701069772
0.00789662112
0.00887065642
0.0099390309
0.0110995256
0.0123540967
0.0136959378
0.0151198512
0.01661316
0.0181596234
0.0197387612
0.0213175902
0.0228644124
0.024321086
0.0256391995
0.0267247486
0.0275038621
0.0278354538
0.0276068474
0.0266234066
0.0247157318
0.0216546079
0.0172122604
0.0106035468
0.00260711262
0.000191157909
2.1490613e-06
4.20616918e-06
1.73993271e-06
6.28264671e-06
5.51946066e-05
1.45675561e-05
3.07309685e-06
6.55514072e-06
5.34095913e-06
0.000193962568
5.12209528e-05
9.13025799e-05
0.000131733241
0.000102879764
0.000133333402
9.34769304e-05
8.29853265e-05
7.64103899e-05
6.86225614e-05
7.43377714e-05
6.02003419e-05
7.69435375e-05
6.75855857e-05
6.77437107e-05
5.83276993e-05
7.37568587e-05
7.75946131e-05
6.6712588e-05
5.99149687e-05
6.99213186e-05
6.74927999e-05
6.97589021e-05
6.94853022e-05
6.92795413e-05
6.5027985e-05
0.000344043424
0.000448858023
0.000565373265
0.000697391142
0.000845045918
0.00100917358
0.00119162856
0.00139468604
0.00162143803
0.00187505339
0.00215960467
0.00247903785
0.00283839955
0.00324238914
0.00369704141
0.00420770971
0.00478128276
0.00542344101
0.00614148605
0.00694073603
0.0078279904
0.00880706333
0.00988279368
0.011055973
0.0123275796
0.0136936951
0.015149221
0.0166836657
0.0182830556
0.0199276611
0.0215904826
0.0232380346
0.0248241031
0.0262941582
0.0275745814
0.0285786907
0.0291965247
0.0292919789
0.0287140212
0.0272453376
0.024706036
0.0206637111
0.0149969436
0.00751893225
0.00320274409
0.000951129016
0.000339213666
0.000241419186
0.000202346191
0.000328444289
0.000238562154
0.00031181269
0.000230466195
0.000273988626
4.50479162e-05
0.000121125096
0.000202663776
1.05859536e-05
6.4704171e-05
7.91597951e-06
4.93582599e-05
6.40279373e-05
6.20895811e-05
7.68494467e-05
6.52824852e-05
7.43883282e-05
6.29396731e-05
6.58567179e-05
7.86058481e-05
7.10308272e-05
6.9363289e-05
7.4530727e-05
6.55802926e-05
6.21546849e-05
6.90534183e-05
6.9219888e-05
6.97381342e-05
6.94835857e-05
6.92851051e-05
6.1168101e-05
0.000322460165
0.000424257695
0.000540246299
0.000671445803
0.000817622437
0.000979667781
0.00115944871
0.00135938915
0.00158249632
0.00183214058
0.00211222319
0.00242697452
0.00278121967
0.00318007842
0.00362932334
0.004134922
0.00470347444
0.00534153538
0.00605610441
0.00685366781
0.00774071417
0.00872247747
0.00980346366
0.0109859744
0.0122706427
0.0136548931
0.0151334176
0.0166966426
0.0183309249
0.0200168109
0.0217288195
0.0234328662
0.025086245
0.0266326607
0.0280048078
0.02911286
0.0298562084
0.030093898
0.0296840126
0.0284023061
0.0260675657
0.0222605468
0.0168783174
0.00902515162
0.0019637797
0.000219638
4.26560316e-05
5.40454345e-05
0.000241296299
0.000120774617
0.000131801923
5.12994512e-05
0.000114278091
0.000173471346
0.000170347185
0.000292830223
3.05320839e-05
0.000231553398
0.000106865448
0.000150846644
9.26739571e-05
7.7952819e-05
7.23227462e-05
7.1042307e-05
6.86695162e-05
6.81966321e-05
6.72017757e-05
5.88737811e-05
7.47573694e-05
5.46854489e-05
6.14718624e-05
7.02497044e-05
6.51121899e-05
6.83983773e-05
7.24587221e-05
6.9262204e-05
6.94916626e-05
6.97003293e-05
6.93340544e-05
5.77204944e-05
0.000303103238
0.000402774701
0.000518334382
0.000648678809
0.000793267906
0.000953192743
0.00113022804
0.00132702841
0.00154637885
0.00179193635
0.00206726211
0.00237700195
0.00272550233
0.00311849544
0.00356113615
0.00406029097
0.00462181084
0.00525354872
0.00596165985
0.00675444661
0.00763753413
0.00861855066
0.00970123104
0.0108907415
0.0121871825
0.0135909548
0.015096713
0.0166974195
0.0183804183
0.0201277529
0.0219168056
0.0237133025
0.0254802219
0.0271586445
0.0286904075
0.029980091
0.0309392598
0.0314194532
0.0312908447
0.0303261352
0.028347288
0.0249933078
0.0201931546
0.0131734516
0.0047324603
0.00118854389
0.000516512941
0.000125206513
1.1018377e-05
4.11582892e-05
9.57773355e-05
0.00012561986
4.7954793e-05
1.47069716e-05
7.46627107e-05
2.80361613e-05
0.00017787932
5.12989533e-06
8.55786189e-05
4.28510809e-05
5.3942101e-05
6.7510924e-05
6.23198201e-05
6.65836132e-05
6.82347531e-05
6.8304197e-05
7.76644528e-05
6.98521442e-05
7.8661847e-05
7.8346882e-05
5.09569476e-05
6.34575951e-05
6.66724742e-05
7.15720638e-05
7.35406668e-05
7.06162532e-05
6.96216699e-05
6.9651188e-05
6.92933863e-05
5.41151745e-05
0.000282985563
0.000380475864
0.000494994347
0.000623577887
0.000765857298
0.000922970958
0.00109679568
0.00129000531
0.00150546853
0.00174682018
0.00201772249
0.00232278386
0.00266650751
0.00305458819
0.00349241176
0.00398682243
0.00454399762
0.00517179064
0.00587679071
0.00666732948
0.00754956446
0.00853118448
0.00961652026
0.0108108499
0.0121148866
0.0135292817
0.0150492988
0.0166684972
0.0183748438
0.0201516598
0.0219769703
0.0238188731
0.0256409062
0.0273880458
0.0290022885
0.030394065
0.0314739476
0.0321022696
0.0321451619
0.0313929495
0.0296562321
0.0266391564
0.0221846533
0.015698664
0.00635285364
0.00126220245
0.000163082152
0.000123447165
0.000188058845
0.000415706381
0.000352023795
0.000379930686
0.00028187158
0.000380321609
0.000172574829
0.000358029922
7.01874034e-05
0.000235855373
5.57591896e-05
7.41318006e-05
6.63602516e-05
6.53176723e-05
7.12720787e-05
7.1151059e-05
7.459808e-05
7.17442294e-05
6.7277482e-05
6.63796906e-05
7.02401069e-05
5.39778845e-05
7.10256549e-05
6.36839807e-05
7.13810749e-05
7.598034e-05
7.35382843e-05
7.07409756e-05
6.93872405e-05
6.94389877e-05
6.93937294e-05
5.06757937e-05
0.000263239819
0.000358562565
0.000471007365
0.000596720557
0.000735335826
0.000888188758
0.00105710656
0.00124490168
0.0014542718
0.00168904194
0.00195262669
0.00224993601
0.00258515075
0.00296445
0.00339283042
0.00387789409
0.00442536975
0.00504425709
0.00574064627
0.0065245042
0.00740143303
0.00838126406
0.00946767105
0.0106684198
0.0119834126
0.0134157707
0.0149599112
0.0166114315
0.018357944
0.0201840797
0.0220689458
0.0239809471
0.0258873626
0.0277320125
0.0294647562
0.0309928383
0.0322406152
0.0330626363
0.0333468595
0.0328751858
0.031489507
0.0288831598
0.0248847799
0.0188782386
0.00999854839
0.00294790738
0.000910248511
0.000283367724
0.000329284288
5.12452706e-05
7.41383966e-06
1.30861341e-06
8.0638378e-06
2.18545231e-07
0.000134172097
7.45534996e-06
9.60089387e-05
1.80200031e-05
6.97751173e-05
0.000118831126
6.7340735e-05
6.20871662e-05
6.64714409e-05
6.68416941e-05
7.39130237e-05
7.1019926e-05
7.38095725e-05
7.10140171e-05
7.33477649e-05
8.26759111e-05
7.19311867e-05
6.5606765e-05
6.98640869e-05
7.88309586e-05
7.25035885e-05
7.08349148e-05
6.98071519e-05
6.93637568e-05
6.95741243e-05
4.85465845e-05
0.000248823768
0.000343741362
0.00045542864
0.000579564054
0.000715993732
0.000866115974
0.00103180182
0.00121581923
0.00142088547
0.00165073456
0.00190880252
0.00219987863
0.00252819924
0.00289981675
0.0033198562
0.00379582199
0.00433370435
0.00494249491
0.00562875305
0.00640261085
0.00727040778
0.00824237984
0.00932317408
0.0105211688
0.0118372574
0.013275201
0.0148300593
0.0164979055
0.0182663911
0.0201205043
0.0220388207
0.0239902732
0.0259411387
0.0278364821
0.0296245397
0.0312155371
0.0325311832
0.0334330441
0.0338042349
0.0334418304
0.0321753535
0.029720962
0.0258481318
0.0199841091
0.011629204
0.00102542745
0.000153967322
4.48553019e-07
2.83439175e-05
0.000332084877
0.000338958489
0.000475571942
0.000313542082
0.000456669693
1.7382819e-05
0.000403214062
9.53546684e-05
0.000161506001
0.000106633979
1.09922863e-05
5.40816705e-05
6.33206964e-05
6.67392662e-05
6.97493166e-05
7.17065642e-05
7.18863831e-05
6.48072424e-05
6.3199802e-05
6.78131105e-05
6.23873585e-05
7.77378657e-05
6.68622561e-05
7.28577044e-05
8.05449094e-05
7.16928911e-05
7.04008423e-05
6.98777765e-05
6.91838645e-05
6.96323932e-05
4.65566348e-05
0.000234675582
0.000329153464
0.000439523231
0.000561572229
0.000695336031
0.000842298344
0.00100431375
0.00118418845
0.00138454871
0.0016091634
0.0018613355
0.00214592435
0.00246700559
0.00283077795
0.00324219389
0.00370905186
0.00423719611
0.00483617334
0.00551249131
0.00627726426
0.00713696583
0.00810342706
0.00918167399
0.0103823803
0.0117069742
0.0131620346
0.0147430413
0.0164489687
0.0182675933
0.0201865242
0.0221844427
0.0242325414
0.026297674
0.0283265515
0.0302689426
0.0320355755
0.0335509976
0.0346761587
0.0352981741
0.0352136445
0.0342532304
0.0321353519
0.0285955155
0.0231560836
0.0155872742
0.00485399163
0.00185917989
0.000559998843
0.00017248086
8.89132558e-06
5.05928942e-05
5.97395206e-06
4.86154695e-06
1.59518228e-05
0.000190353665
8.99092751e-05
0.000148783688
0.000204465802
0.000117528442
0.000130249404
9.56434118e-05
7.57954343e-05
7.15415515e-05
7.43820101e-05
6.97177048e-05
7.18517785e-05
6.74005362e-05
7.75875119e-05
6.45887093e-05
7.94381443e-05
8.21612543e-05
7.0169394e-05
7.2230622e-05
7.85485138e-05
6.85989095e-05
6.94443987e-05
6.95163146e-05
6.92479661e-05
6.97408244e-05
4.61357469e-05
0.000222859915
0.000317826359
0.0004274071
0.000548000968
0.000679870855
0.000824503095
0.000983846074
0.00116058181
0.00135742116
0.00157793325
0.00182553997
0.00210481435
0.00242001419
0.00277695073
0.00318086686
0.00363905859
0.00415783594
0.00474613021
0.00541119422
0.0061634516
0.00701053739
0.00796360747
0.00902938977
0.010218027
0.0115331781
0.0129811397
0.0145598436
0.0162682958
0.0180963732
0.0200322667
0.0220558541
0.0241401144
0.0262517868
0.0283415638
0.0303571026
0.032216321
0.0338386636
0.0350960773
0.035866522
0.0359612693
0.0351948537
0.0333033092
0.0299877698
0.0248758659
0.0176546015
0.00742310748
0.00118639352
0.000267953368
0.000332511219
0.000409737432
0.000403667597
0.000542661207
0.000322465678
0.000546755615
5.70486861e-05
0.000162057283
2.91989057e-05
3.78446901e-06
3.9888757e-05
4.76514284e-06
6.44231378e-05
7.21082418e-05
6.73901981e-05
7.59068055e-05
6.26825087e-05
6.98812141e-05
6.50563876e-05
7.28366992e-05
6.44035145e-05
6.13393097e-05
7.38504824e-05
7.24350035e-05
7.44248333e-05
7.50623069e-05
6.54364795e-05
6.93111842e-05
6.96734227e-05
6.9160157e-05
6.97702951e-05
4.62073304e-05
0.000210592693
0.000305770701
0.00041392333
0.000532529149
0.000662042917
0.000804043455
0.000960444193
0.00113396796
0.00132725341
0.0015439142
0.00178725559
0.00206192452
0.00237201633
0.00272346169
0.003121285
0.0035729757
0.00408456262
0.00466529465
0.00532209184
0.00606590687
0.00690404068
0.00784852642
0.00890586001
0.0100875718
0.0113973147
0.0128433513
0.0144238884
0.0161402879
0.0179830014
0.0199425162
0.0219995941
0.0241291526
0.0262993478
0.0284622724
0.0305677681
0.0325345224
0.0342850543
0.0356917886
0.0366368275
0.0369335669
0.0364018892
0.0347830619
0.0317939148
0.0271097707
0.0204752937
0.0107840757
0.00365704427
3.56662161e-05
0.000213231366
0.000104818762
1.51409137e-05
9.76019802e-05
4.89065571e-05
9.67554765e-05
0.000181090986
0.000443118112
6.50025701e-05
0.000293852263
4.46865207e-05
0.000153534808
0.000105878177
7.84720266e-05
7.77464853e-05
7.30530926e-05
6.61757983e-05
7.09702373e-05
6.44901977e-05
7.89100379e-05
6.46218155e-05
7.44860314e-05
8.67693901e-05
7.17252712e-05
7.29690216e-05
7.21640143e-05
6.40408898e-05
6.8149811e-05
6.90771827e-05
6.93781253e-05
6.9787831e-05
4.52516743e-05
0.000196903136
0.000291660275
0.000397282236
0.000512862202
0.000639090076
0.000777519574
0.000930174775
0.00109966235
0.00128875553
0.00150088313
0.00173956155
0.00200917431
0.00231412649
0.00265997675
0.00305219131
0.00349773182
0.00400323989
0.00457721561
0.00522740859
0.00596372979
0.00679458174
0.00773061992
0.00877978691
0.00995196598
0.0112526939
0.0126886053
0.0142602728
0.015968008
0.017804857
0.0197615713
0.021821178
0.0239608747
0.0261497979
0.0283451997
0.0304952268
0.0325272753
0.0343574919
0.0358710832
0.0369372988
0.0373857775
0.0370141354
0.0355954514
0.0328009115
0.0284221691
0.0219747753
0.0125334991
0.00257058968
0.00106885334
0.000247965653
0.00029372423
0.000423844583
0.000255287111
0.000184765607
0.000228340727
2.27205572e-05
6.81083375e-06
0.000198960072
6.53778351e-06
0.000147342621
2.31731917e-05
7.37463938e-05
7.62532038e-05
7.00905346e-05
6.98298374e-05
6.68776873e-05
6.7806834e-05
6.81307135e-05
7.35549209e-05
6.75258985e-05
6.42429379e-05
7.96440932e-05
7.06224931e-05
7.43420294e-05
6.83089502e-05
6.22627603e-05
6.83633986e-05
6.94894657e-05
6.94179412e-05
6.96715171e-05
4.37568291e-05
0.000183364309
0.000277397031
0.000379806981
0.00049165106
0.000613782601
0.000747801539
0.000895702985
0.00106008575
0.00124368686
0.00144994471
0.00168233951
0.00194530276
0.00224322288
0.00258177572
0.00296644659
0.00340442247
0.00390241775
0.0044693111
0.00511298801
0.00584392455
0.00667071274
0.00760473674
0.00865412842
0.00982955134
0.011136646
0.0125827092
0.0141683077
0.015894224
0.0177536612
0.019737753
0.0218304494
0.0240093808
0.026246118
0.0284982535
0.0307185717
0.0328341641
0.0347687111
0.0364050577
0.0376228358
0.0382458606
0.0380866247
0.0369025687
0.0343988809
0.0303320056
0.0241962058
0.015071442
0.00417940636
0.000574939027
6.60655643e-05
6.35842397e-05
6.64390846e-05
0.000523752307
0.000227776705
0.000574451293
0.000261937002
0.000559404976
6.99399834e-05
0.00032316733
5.30567759e-05
0.000133495367
8.57517279e-05
8.00589451e-05
7.53298762e-05
7.02329722e-05
6.85865592e-05
6.83357025e-05
6.63101438e-05
7.45851333e-05
6.32205871e-05
7.54880286e-05
8.26084514e-05
7.09210047e-05
7.48301401e-05
6.32495163e-05
6.43198645e-05
6.79644699e-05
6.89024948e-05
6.95949063e-05
6.95967809e-05
4.21620505e-05
0.000170076342
0.000263167084
0.000362063104
0.000469906177
0.000587729048
0.000717105562
0.000860056486
0.00101909696
0.00119699759
0.00139707703
0.00162289447
0.00187872918
0.00216911396
0.00249953685
0.00287572685
0.00330464132
0.00379338467
0.00435055941
0.00498464798
0.0057058047
0.00652348014
0.00744870899
0.00849076662
0.00965995964
0.0109632751
0.0124076688
0.0139950673
0.0157260044
0.0175947997
0.0195927752
0.0217045477
0.0239090444
0.0261778647
0.0284718215
0.0307427712
0.0329238393
0.0349360948
0.0366719713
0.0380059037
0.0387741805
0.0387824543
0.0378016516
0.0355364582
0.0317396383
0.0258821542
0.0172532572
0.00514773678
0.0013017533
0.000220844607
0.000293016809
0.000413607855
4.87686438e-06
4.54513757e-05
1.43957953e-05
1.57756371e-05
6.0730545e-06
0.000140879065
1.69557365e-05
9.69526632e-05
5.79932552e-05
6.47238377e-05
7.18880415e-05
7.19035712e-05
6.26313454e-05
6.7964054e-05
6.46123363e-05
6.91327878e-05
7.37732103e-05
6.81047568e-05
7.12632217e-05
6.73883768e-05
7.40182269e-05
6.95080947e-05
6.06946567e-05
6.33437285e-05
6.83581758e-05
6.93679072e-05
6.95946677e-05
6.95011474e-05
4.01625859e-05
0.00015524929
0.000246853558
0.000341313706
0.000444330312
0.00055707067
0.000681125325
0.000818498753
0.000971671808
0.00114340566
0.0013369952
0.00155601084
0.00180472756
0.00208772339
0.00241051111
0.00277891401
0.00319995518
0.00368090119
0.00423047539
0.00485741539
0.00557206206
0.00638423836
0.00730524029
0.00834486054
0.00951379526
0.0108196992
0.0122700951
0.0138677322
0.0156139369
0.0175040493
0.019530538
0.0216792905
0.023930883
0.0262584862
0.0286251838
0.0309847536
0.0332733257
0.0354144087
0.0373042214
0.0388202862
0.0398034506
0.0400618198
0.039368458
0.0374220961
0.0339618876
0.0284069719
0.020188737
0.00794274552
0.00109864555
0.000849279401
0.000544451019