/*--------------------------------*- C++ -*----------------------------------*\
| =========                 |                                                 |
| \\      /  F ield         | OpenFOAM: The Open Source CFD Toolbox           |
|  \\    /   O peration     | Version:  v2006                                 |
|   \\  /    A nd           | Website:  www.openfoam.com                      |
|    \\/     M anipulation  |                                                 |
\*---------------------------------------------------------------------------*/
FoamFile
{
    version     2.0;
    format      ascii;
    class       volScalarField;
    location    "0.0534000002";
    object      p;
}
// * * * * * * * * * * * * * * * * * * * * * * * * * * * * * * * * * * * * * //

dimensions      [1 -1 -2 0 0 0 0];


internalField   nonuniform List<scalar> 
14400
(
69911.5042
69912.5901
69910.0726
69915.7073
69906.8873
69919.4506
69903.2489
69923.4278
69899.4837
69927.3993
69895.7895
69931.177
69892.2958
69934.6053
69889.0837
69937.5249
69886.1961
69939.8033
69883.714
69941.4077
69881.6566
69942.2946
69880.0185
69942.4093
69878.8272
69941.8351
69878.0844
69941.0385
69877.04
69939.845
69875.5135
69938.0714
69873.3236
69935.5688
69870.433
69932.3082
69866.7729
69928.0732
69862.1807
69922.5887
69856.4011
69915.4223
69849.256
69906.0981
69840.5607
69893.9676
69830.0832
69878.214
69817.3427
69858.0719
69802.389
69832.9353
69784.1213
69802.2419
69760.7968
69765.2358
69728.701
69717.3687
69686.2165
69650.5844
69629.2157
69545.9139
69577.7094
69403.0451
69510.1536
69248.2256
69421.4347
69065.2264
69265.7958
69004.1705
69101.4031
69029.8819
69001.1464
68957.7006
68899.7965
68689.6938
68474.7525
68409.3048
68548.2067
68129.0128
69561.9026
69563.1169
69558.8211
69567.8415
69553.7052
69573.4347
69548.0596
69579.3959
69542.2029
69585.5252
69536.314
69591.6715
69530.5574
69597.6886
69525.0879
69603.453
69520.0581
69608.8207
69515.6242
69613.6733
69511.9089
69617.8827
69509.0022
69621.3576
69506.9501
69624.125
69505.9803
69626.0452
69505.2246
69626.9803
69504.781
69627.2562
69504.9684
69627.3985
69505.9224
69627.1852
69506.6665
69626.9827
69507.8361
69626.4538
69509.1465
69626.1061
69510.3982
69625.7536
69511.7021
69625.711
69512.9479
69625.3887
69514.01
69625.0049
69514.1935
69623.2871
69511.66
69617.8967
69503.3193
69604.9679
69484.1853
69585.1837
69462.5805
69567.8559
69458.4208
69569.3506
69439.8604
69562.8545
69405.3153
69514.5348
69359.9922
69428.4693
69294.4301
69301.891
69257.4632
69161.3386
69254.0469
69077.4998
69223.6184
68970.7474
69020.7327
68666.013
68617.9282
68379.9635
69830.2206
69828.5097
69835.0776
69821.4993
69842.9898
69813.0477
69851.8813
69803.9006
69861.3024
69794.3801
69870.9982
69784.7188
69880.7552
69775.1298
69890.3725
69765.8191
69899.7086
69756.9982
69908.5533
69748.8721
69916.6479
69741.6239
69923.9049
69735.4396
69930.1907
69730.5163
69935.4019
69726.9069
69939.4391
69724.6044
69942.2166
69723.4056
69943.6984
69723.159
69943.9139
69723.5428
69943.3362
69724.7498
69942.6753
69726.245
69941.6995
69728.1921
69940.8284
69730.1798
69939.1212
69732.026
69937.1137
69733.875
69934.0097
69734.7799
69929.4521
69733.6135
69921.1086
69729.46
69905.534
69720.8963
69875.8544
69705.8417
69828.8813
69674.8257
69781.4877
69618.0559
69718.6595
69525.4709
69651.2019
69434.963
69597.3248
69335.3093
69471.7425
69356.7706
69344.6008
69428.2665
69307.0162
69255.618
69308.1143
69198.492
69261.575
69073.0873
69139.1689
68574.3654
69065.3439
69066.4183
69062.4462
69070.6872
69057.6386
69075.8777
69052.1766
69081.5742
69046.3199
69087.5882
69040.2312
69093.773
69034.0527
69099.9956
69027.9178
69106.1312
69021.9564
69112.0576
69016.3002
69117.6526
69011.0844
69122.7945
69006.4455
69127.3888
69002.5189
69131.4115
68999.4391
69134.568
68997.2876
69136.8788
68996.2044
69138.3316
68996.0293
69138.9287
68996.4544
69138.7073
68997.1283
69137.9648
68998.0033
69137.3292
68998.6383
69136.4261
68999.2371
69135.1872
68999.5836
69133.6417
68999.2356
69131.8428
68997.639
69130.1229
68994.1993
69129.1037
68988.8654
69129.0988
68981.6292
69129.7495
68977.7293
69123.4917
68983.3223
69110.6448
68989.329
69096.6968
68999.8487
69098.9976
69034.2124
69085.1972
69075.3656
69077.0174
69144.9984
69113.5108
69218.2372
69113.0906
69272.7367
69089.5218
69329.4679
68994.912
69177.3846
68858.2286
69110.7345
68817.6787
68804.4291
68802.2548
68810.4572
68793.448
68820.4446
68782.6246
68831.9393
68770.5895
68844.439
68757.7361
68857.5973
68744.3872
68871.1147
68730.8242
68884.7316
68717.2942
68898.217
68704.0256
68911.3525
68691.2425
68923.9213
68679.1725
68935.7051
68668.0456
68946.4882
68658.0892
68956.0639
68649.52
68964.2408
68642.5367
68971.0497
68637.3383
68975.9438
68634.0546
68978.9763
68632.699
68980.1008
68633.0159
68979.4462
68634.7926
68977.3274
68637.3287
68974.5387
68640.637
68971.133
68644.6782
68966.4427
68649.2797
68960.9175
68654.0799
68954.1471
68658.7042
68946.3085
68660.7239
68936.2348
68660.0371
68918.6725
68660.9817
68886.929
68659.8947
68856.6529
68635.5274
68827.652
68559.0344
68782.6045
68495.5003
68728.2993
68465.9267
68624.1614
68474.122
68579.659
68574.4066
68685.6624
68480.0356
68870.0019
68681.2495
69064.0643
68813.1394
69019.005
68819.4987
68146.9717
68147.9073
68144.4607
68151.6202
68140.2343
68156.2357
68135.3075
68161.4369
68129.8929
68167.0465
68124.1565
68172.9088
68118.2463
68178.888
68112.2915
68184.8654
68106.4093
68190.7307
68100.7152
68196.3722
68095.3317
68201.6708
68090.3916
68206.4988
68086.0373
68210.7235
68082.4149
68214.2134
68079.6655
68216.8485
68077.9112
68218.6549
68077.4084
68219.4415
68077.8386
68219.163
68079.1771
68218.0189
68081.0734
68216.3024
68082.9842
68214.4864
68084.9405
68212.3453
68087.3396
68209.6888
68090.3202
68206.0489
68094.0531
68201.1574
68098.9584
68195.2375
68105.4481
68188.9399
68114.4421
68184.3481
68126.1126
68182.9772
68132.1396
68176.4046
68133.2855
68179.2987
68204.0296
68203.9041
68275.5784
68180.2469
68379.6322
68195.2365
68510.0747
68209.7589
68571.3515
68117.7155
68548.6257
68144.1895
68608.1977
68036.0677
68499.5345
68276.2129
68345.3537
68699.9932
68527.2696
68524.2721
68535.4388
68512.2314
68549.2431
68497.0585
68565.5801
68479.727
68583.7661
68460.8484
68603.2203
68440.9714
68623.4377
68420.5558
68644.0059
68399.9775
68664.5827
68379.5616
68684.8596
68359.618
68704.5305
68340.467
68723.2742
68322.4494
68740.753
68305.9206
68756.624
68291.2357
68770.5565
68278.7313
68782.2499
68268.7064
68791.4526
68261.4839
68797.9979
68257.0898
68801.9291
68255.5107
68802.986
68256.5495
68801.3866
68259.7231
68797.8723
68264.0891
68793.3669
68269.3081
68787.4451
68275.6887
68780.0808
68283.6195
68770.0813
68293.7344
68756.2687
68307.0702
68738.9065
68321.8584
68721.7599
68327.4536
68708.9081
68334.0962
68682.5696
68301.0577
68623.7694
68239.5049
68529.1773
68183.9902
68471.6314
68107.4908
68413.2526
68048.9091
68372.572
68013.535
68464.0975
67948.0728
68490.3755
68325.7342
68279.5409
68513.6425
68064.0229
68304.465
68150.5206
68150.6173
68150.2775
68150.9794
68149.8549
68151.4435
68149.3486
68151.9819
68148.7802
68152.5741
68148.1701
68153.2011
68147.5367
68153.8464
68146.8962
68154.4958
68146.2648
68155.1352
68145.6606
68155.7487
68145.1068
68156.3159
68144.6341
68156.8106
68144.2842
68157.2023
68144.1214
68157.4509
68144.2377
68157.5108
68144.6691
68157.323
68145.5206
68156.8238
68146.8898
68155.9025
68148.8267
68154.5507
68151.3152
68152.7602
68154.2265
68150.5863
68157.3462
68147.6873
68161.2096
68143.3442
68166.5455
68136.4094
68174.3676
68125.9524
68185.3452
68110.9904
68200.5066
68092.913
68223.3394
68080.9748
68258.6985
68086.2722
68306.5727
68073.6773
68367.5302
68067.8024
68445.7026
68065.9314
68532.5585
68084.4265
68663.0942
68137.0677
68782.3239
68168.7288
68758.0959
68079.5957
68555.4608
68212.5434
68344.3355
68336.1687
68020.2146
68546.6815
68085.8766
68144.2343
68217.6423
68212.8061
68230.5871
68193.5326
68253.0184
68168.4713
68280.3854
68139.0945
68311.472
68106.5921
68345.1224
68072.0436
68380.3627
68036.309
68416.4433
68000.0431
68452.7887
67963.7643
68488.923
67927.9284
68524.4024
67892.9874
68558.7677
67859.4249
68591.5228
67827.7666
68622.1364
67798.5694
68650.0594
67772.3972
68674.8382
67749.8254
68695.8579
67731.461
68712.4971
67717.7851
68724.3143
67709.2644
68730.7912
67706.353
68731.4365
67709.4003
68725.7726
67718.3573
68715.4919
67730.9583
68702.4388
67747.3887
68686.8537
67768.3076
68670.0349
67794.3319
68653.8015
67824.2708
68633.3762
67846.9854
68598.0243
67843.5286
68557.2244
67846.2135
68524.0573
67835.9263
68457.408
67793.6441
68374.0547
67679.1945
68310.0284
67617.2507
68225.7071
67569.1233
68104.9657
67804.1119
68060.2874
68180.4072
67887.8737
68821.7376
68020.481
68667.7152
68477.2936
68158.1032
67668.168
67664.8885
67676.8559
67651.8871
67692.1326
67634.6642
67711.0786
67614.2141
67732.8154
67591.4089
67756.5059
67567.0143
67781.4785
67541.6028
67807.2582
67515.5638
67833.5328
67489.1492
67860.1043
67462.5189
67886.849
67435.776
67913.6885
67408.9888
67940.5741
67382.2017
67967.4791
67355.442
67994.3895
67328.7342
68021.2776
67302.1393
68048.0401
67275.8371
68074.3805
67250.2664
68099.6198
67226.3387
68122.4096
67205.739
68140.3205
67191.2787
68149.5583
67186.7384
68148.6591
67188.0129
68144.0202
67189.8285
68136.8043
67191.3083
68124.9964
67191.8893
68109.0354
67189.2337
68102.8166
67190.1717
68129.6183
67202.755
68166.4221
67222.3908
68189.8487
67242.1248
68233.6921
67274.9521
68321.0528
67340.2977
68390.3135
67467.368
68265.4211
67692.347
67903.7089
67928.427
67426.008
68263.1011
67382.1153
68146.7972
67781.5089
67911.3298
68302.6342
68222.697
68058.4731
68049.4823
68082.1025
68013.8345
68124.4547
67965.6431
68177.8349
67907.75
68239.5555
67842.8633
68307.014
67773.3646
68378.1077
67701.0661
68451.2964
67627.2705
68525.4744
67552.9303
68599.8033
67478.8086
68673.5656
67405.6062
68746.0579
67334.0475
68816.5278
67264.9198
68884.1552
67199.0719
68948.0651
67137.4112
69007.3488
67080.8242
69061.0194
67030.2603
69108.0035
66986.8041
69146.9567
66951.8137
69176.0523
66927.1352
69192.6995
66915.3431
69193.3001
66920.0004
69174.9757
66936.8395
69147.7298
66956.7344
69115.3547
66979.682
69078.3134
67007.9549
69032.7787
67044.2567
68963.211
67091.4717
68842.8426
67165.2444
68719.6311
67238.093
68586.6742
67324.756
68396.0495
67404.4763
68105.8278
67500.8438
67843.2427
67643.0666
67542.2174
67851.1705
67284.6324
68129.194
67299.2902
68251.134
67486.5228
68172.3357
68047.7819
67801.6145
67859.8299
68021.6317
67501.8776
67492.2013
67527.0621
67453.8916
67573.1221
67400.9845
67632.109
67336.7337
67700.8067
67264.3681
67776.1491
67186.6621
67855.7118
67105.6837
67937.7586
67022.8812
68021.0835
66939.2716
68104.8169
66855.625
68188.2605
66772.6113
68270.7629
66690.9045
68351.6401
66611.2461
68430.1379
66534.4705
68505.4228
66461.7632
68576.3225
66393.4037
68642.4146
66331.0685
68702.2263
66276.2825
68754.115
66231.2471
68795.7538
66199.1855
68823.6696
66184.8983
68832.5235
66195.318
68815.0195
66231.8214
68778.1356
66282.8873
68727.6514
66346.1832
68660.6483
66425.4323
68575.892
66538.0259
68478.7922
66682.2921
68395.8843
66825.0698
68267.2227
67015.237
68096.1144
67247.2836
67921.2685
67534.3568
67773.4476
67875.4179
67592.4075
68219.2362
67382.3863
68475.412
67226.0207
68364.5116
67264.6111
67960.7301
67721.2056
67583.2162
67904.993
67892.9014
67685.7636
67837.5253
67581.8067
67569.6051
67613.3683
67521.0951
67672.4625
67452.557
67749.3799
67368.4275
67839.5803
67273.258
67938.7559
67170.9473
68043.4828
67064.4452
68151.242
66955.9024
68260.1764
66846.955
68368.7982
66739.0018
68475.734
66633.4327
68579.5228
66531.7995
68678.4748
66435.9203
68770.5993
66347.9098
68853.6072
66270.1057
68924.9791
66204.8331
68982.3619
66154.9495
69022.6714
66122.7454
69043.5589
66109.614
69043.6202
66115.9567
69022.697
66140.187
68982.8195
66178.3239
68928.6662
66226.7557
68863.1324
66290.2742
68782.8197
66377.7458
68683.6008
66491.0269
68561.1365
66611.4104
68407.0286
66780.0212
68187.2714
67022.6364
67948.6537
67289.8909
67695.3016
67564.3265
67363.353
67868.8204
67030.3887
68119.6132
66728.8333
68223.9685
66612.1209
68166.8462
66881.0755
67828.801
67501.16
67433.4683
67786.3993
67859.5436
67643.3511
68076.082
67775.619
67746.4788
67351.4247
67347.4591
67361.5849
67331.6637
67381.1034
67308.8017
67406.9123
67280.4726
67437.3555
67248.3135
67470.9013
67213.7038
67506.3413
67177.6899
67542.7761
67141.0546
67579.5177
67104.4273
67615.9773
67068.3919
67651.5659
67033.5788
67685.6119
67000.7377
67717.3015
66970.7859
67745.6468
66944.8235
67769.4934
66924.1114
67787.5673
66910.0095
67798.5637
66903.8797
67801.2818
66906.9358
67794.827
66920.0191
67778.9026
66943.2512
67754.2649
66975.4045
67723.4298
67012.5385
67692.0608
67048.178
67662.386
67081.5922
67629.4759
67110.5861
67597.8871
67141.5948
67558.4076
67204.2296
67514.0577
67237.9909
67490.0023
67304.9797
67465.6576
67385.7024
67425.2934
67512.4198
67406.8139
67629.6375
67381.8971
67786.8675
67390.5262
67913.3888
67360.704
67936.7457
67164.8009
67771.7048
67127.1471
67375.5738
67382.5328
67370.8779
67231.506
67530.5267
67632.3416
67709.4605
67942.4415
67941.582
67944.65
67938.0906
67949.0273
67932.9129
67954.8998
67926.4549
67961.841
67919.1389
67969.451
67911.3361
67977.3907
67903.3612
67985.3672
67895.5007
67993.0977
67888.0537
68000.2677
67881.3753
68006.4883
67875.9198
68011.2571
67872.2792
68013.9258
67871.211
68013.6862
67873.6434
68009.5864
67880.6444
68000.5923
67893.3388
67985.714
67912.738
67964.1612
67939.4346
67935.7559
67972.9904
67902.2441
68010.9249
67866.7573
68047.4381
67835.9612
68071.7878
67819.3032
68072.5146
67818.1993
68061.8397
67814.3515
68060.3052
67791.9094
68055.0226
67783.9727
68023.2858
67783.1215
68042.5011
67759.5442
67994.9535
67698.005
67955.7945
67663.2417
67899.3655
67627.7166
67774.3914
67621.7709
67621.4565
67603.3468
67514.1727
67506.5777
67575.4258
67420.1134
67657.2632
67269.4178
67798.4577
67495.0869
67665.7525
67509.4454
67579.1124
67314.4412
67511.662
67847.5003
67851.8965
67836.487
67869.495
67814.0425
67896.2992
67783.4351
67930.1498
67746.8776
67968.9352
67706.2903
68010.9664
67663.1164
68055.0321
67618.3532
68100.3123
67572.6649
68146.2556
67526.4992
68192.4681
67480.1838
68238.6253
67433.9965
68284.4032
67388.2141
68329.4271
67343.1403
68373.233
67299.1105
68415.2297
67256.4665
68454.6575
67215.55
68490.5402
67176.746
68521.5739
67140.6245
68546.5142
67107.5548
68564.5105
67079.0843
68575.2631
67058.561
68580.2989
67056.8477
68575.711
67086.7958
68550.8123
67138.2464
68491.6516
67216.2819
68432.1108
67261.7084
68398.2207
67315.1779
68283.6879
67408.4494
68149.2365
67580.8019
68034.6585
67741.1999
67848.6329
67908.8976
67707.7371
68059.0644
67581.9344
68087.6356
67477.4815
67936.2484
67411.3699
67464.9949
67644.5336
67069.9567
67844.1774
67302.918
67269.9281
67449.9614
67612.0408
67315.4765
67416.8239
68527.8736
68531.0571
68519.9887
68543.8565
68503.3841
68563.8743
68480.4186
68589.3586
68452.8571
68618.6625
68422.1806
68650.5025
68389.4831
68683.9777
68355.5107
68718.4978
68320.753
68753.6906
68285.5358
68789.3228
68250.0969
68825.2424
68214.6468
68861.3412
68179.4147
68897.54
68144.6881
68933.7965
68110.8468
68970.1357
68078.402
69006.6786
68048.0642
69043.6244
68020.845
69081.1825
67998.0715
69119.3387
67980.9289
69156.0672
67968.9826
69186.2795
67957.212
69198.7245
67936.0648
69181.7837
67909.6814
69145.4701
67891.3607
69132.2625
67878.7891
69099.8818
67921.8178
69017.7291
67939.5843
68983.7821
67944.5525
68987.6162
67930.8263
68891.9972
67907.4479
68868.482
67841.0362
68643.9373
67724.9453
68371.8736
67708.945
68008.0147
67727.1003
67604.1382
67819.6539
67402.1677
67905.576
67822.993
67369.0096
67751.1885
67399.8535
67706.388
67366.19
67398.2311
69041.7456
69048.4447
69025.3347
69075.6047
68989.4459
69119.2721
68939.074
69175.3028
68878.3226
69239.9191
68810.5542
69310.2006
68738.2454
69384.078
68663.0961
69460.1539
68586.2444
69537.4765
68508.4811
69615.3386
68430.4289
69693.1122
68352.6829
69770.1171
68275.9148
69845.5182
68200.9332
69918.2519
68128.6808
69987.1432
68060.228
70050.6697
67996.5245
70107.2558
67938.1757
70155.1422
67885.456
70193.6428
67838.5528
70222.9482
67798.8562
70244.7683
67773.1799
70260.8645
67779.4267
70261.6526
67831.2573
70236.2977
67912.3122
70201.6868
68001.9044
70142.3585
68075.7322
70057.5158
68185.3314
69920.7211
68320.4988
69768.1237
68406.8799
69594.2311
68531.6889
69308.9259
68624.7036
69034.9391
68682.6721
68644.4756
68635.3599
68256.0599
68538.7128
68140.1948
68497.2937
68170.9734
68203.0991
68029.8931
67498.2227
68079.8724
67649.5223
67693.7788
67409.5387
67424.121
69509.26
69514.954
69495.4564
69538.205
69464.2578
69576.4417
69420.0219
69625.7309
69366.56
69682.6274
69306.9081
69744.5184
69243.272
69809.5773
69177.1522
69876.5877
69109.5442
69944.7401
69041.135
70013.4531
68972.4661
70082.2296
68904.0668
70150.5403
68836.565
70217.7346
68770.7725
70282.9861
68707.7281
70345.2738
68648.6807
70403.1311
68594.9415
70455.6238
68548.0448
70501.5895
68509.6554
70539.5019
68480.9073
70567.8794
68462.5502
70584.9789
68455.0787
70587.0564
68461.0796
70571.7572
68486.3388
70547.5638
68520.3389
70459.5058
68563.1007
70358.986
68600.5347
70305.3007
68682.6669
70193.4326
68708.507
70056.7571
68776.4335
69888.9475
68779.8514
69662.887
68802.0432
69475.3546
68791.7857
69205.8989
68838.8531
68965.0112
68936.0929
68685.1383
69060.6742
68502.9476
68889.7686
68224.4559
68135.9349
68624.3518
68150.7919
68341.7579
67796.5302
67576.715
69654.749
69661.5932
69638.3392
69689.7845
69599.8636
69737.3051
69544.6645
69798.9356
69477.7158
69870.2324
69402.9065
69947.8558
69323.0507
70029.4718
69240.0624
70113.5203
69155.2138
70198.9539
69069.3858
70285.0061
68983.2762
70371.0044
68897.5716
70456.2118
68813.0916
70539.6964
68730.9052
70620.2359
68652.3957
70696.2826
68579.2466
70765.9887
68513.3495
70827.3904
68456.7395
70878.2908
68411.4423
70916.1835
68379.1886
70939.1666
68361.5501
70944.4988
68360.863
70928.652
68379.8849
70882.5774
68427.7506
70790.8146
68504.7596
70689.4
68574.4886
70642.5493
68619.2662
70572.914
68650.0275
70408.9192
68795.3263
70231.7321
68948.2683
70078.9057
69111.0315
69912.9035
69221.4028
69591.7439
69412.4217
69319.6238
69544.5523
69067.8076
69521.2438
68922.0825
69242.4532
68705.5947
68801.0935
68235.4741
68517.4126
68626.1007
68288.9167
68410.1505
68414.3625
67913.6047
69856.5936
69860.9211
69846.315
69878.9134
69821.3838
69909.8947
69785.3054
69950.2268
69741.4802
69996.9141
69692.5096
70047.7378
69640.2594
70101.1598
69585.9942
70156.159
69530.5553
70212.0572
69474.5279
70268.37
69418.3792
70324.6892
69362.5709
70380.5896
69307.6577
70435.5554
69254.3727
70488.9313
69203.6947
70539.9124
69156.8975
70587.5651
69115.6165
70630.8105
69082.0148
70668.212
69059.1253
70697.5475
69051.1548
70715.2745
69062.4721
70717.8481
69091.753
70708.4627
69117.4226
70704.6587
69100.8161
70702.2571
69072.5806
70661.7993
69129.3275
70531.297
69178.4259
70429.1963
69207.6516
70450.9374
69212.5686
70317.6228
69202.1577
70228.9421
69164.3728
70117.0188
69157.7326
69936.0283
69108.2732
69688.4406
69154.7648
69395.7353
69234.994
68961.6723
69170.2322
68359.7784
69084.2475
68228.5329
68725.3016
68579.5241
68437.5526
68396.9495
68874.9072
68277.6927
70136.842
70142.2138
70124.2359
70164.7773
70092.4463
70204.5795
70045.9207
70256.7018
69989.1921
70317.1785
69925.6886
70383.0778
69857.8714
70452.3459
69787.4241
70523.5823
69715.4887
70595.799
69642.8866
70668.2081
69570.3
70740.0409
69498.4161
70810.3896
69428.0386
70878.0661
69360.0385
70941.5259
69295.4881
70998.7842
69236.2002
71047.3694
69182.6402
71084.4624
69134.9031
71108.1754
69091.3137
71117.0862
69048.2135
71111.8
69002.3483
71091.1846
68961.3412
71048.1713
68965.0148
70964.9568
69077.0078
70883.1662
69128.7357
70858.8557
69079.1794
70868.0363
69224.0524
70742.4077
69274.2331
70517.2199
69305.9593
70385.1081
69378.7442
70171.9062
69435.7855
69916.7602
69503.1652
69619.4075
69541.9635
69215.6973
69345.2319
68816.7564
69016.9227
68457.7421
68449.7245
68105.8428
68268.5111
67959.1098
68408.1054
68063.5421
68349.2928
67875.7936
68943.2001
68470.145
70657.3396
70659.7896
70651.6612
70670.1757
70636.7517
70688.9742
70614.693
70713.7298
70587.7148
70742.514
70557.4718
70773.9183
70525.1472
70806.9555
70491.5574
70840.943
70457.2733
70875.382
70422.731
70909.8519
70388.3253
70943.9204
70354.4844
70977.0657
70321.7311
71008.6062
70290.7291
71037.6407
70262.31
71063.0005
70237.4938
71083.2039
70217.5606
71096.4363
70204.1475
71100.4071
70200.0967
71092.4644
70209.6351
71071.6388
70236.7993
71051.1723
70274.9314
71065.8185
70289.8509
71145.8803
70245.0375
71134.0069
70274.6294
71019.3705
70306.765
70973.3932
70220.8005
70859.8819
70189.5394
70785.7371
70124.628
70756.1364
69967.4339
70571.3273
69759.9025
70358.3767
69464.0664
70094.4322
69210.2164
69809.1566
68927.2096
69482.2709
68690.4358
69041.8266
68564.3452
68255.5845
68341.6811
67925.389
68409.7094
67776.3552
68260.2873
67697.4872
68516.9947
68452.4819
71336.7498
71339.5466
71330.4262
71351.4266
71313.0786
71373.5133
71287.0796
71402.8095
71255.1311
71437.0082
71219.2033
71474.4542
71180.687
71514.0143
71140.5245
71554.9402
71099.3543
71596.7333
71057.6399
71639.0266
71015.7545
71681.4873
70974.2236
71723.7549
70933.6526
71765.3696
70894.8864
71805.726
70859.0204
71844.0503
70827.5638
71879.4684
70802.3839
71911.3606
70785.6021
71938.8325
70779.254
71960.311
70784.6457
71972.9846
70800.63
71967.1788
70819.3471
71925.9759
70813.252
71846.2186
70749.5572
71822.2091
70720.6328
71823.2454
70755.2739
71674.2586
70688.1983
71602.1384
70644.4336
71447.4207
70643.9609
71155.1526
70469.2917
70874.9719
70339.4923
70506.4248
70167.6559
70212.923
69866.2281
69784.6543
69413.6874
69399.2268
68934.9849
68873.3826
68435.1528
68512.3286
68240.6598
68160.9528
68654.5223
67755.911
68639.9322
67781.8284
68032.5521
68262.1695
72040.8881
72042.3171
72037.7345
72048.3963
72028.7099
72059.9953
72015.025
72075.4688
71998.1538
72093.5716
71979.1511
72113.4253
71958.7524
72134.4332
71937.4537
72156.2013
71915.5912
72178.4623
71893.4142
72201.0089
71871.1476
72223.6365
71849.0476
72246.0887
71827.4556
72268.0026
71806.8508
72288.8539
71787.8947
72307.9121
71771.4532
72324.2189
71758.5724
72336.6003
71750.3728
72343.705
71747.8054
72343.9603
71751.1896
72335.6179
71759.6859
72315.8109
71771.9836
72276.5251
71786.2134
72212.6502
71779.6745
72152.363
71689.2566
72105.0713
71647.7574
72020.9986
71591.6829
71901.7115
71452.5938
71848.0645
71334.684
71645.0248
71099.4674
71461.6674
70753.102
71226.4203
70335.2289
70835.7492
69805.5883
70408.3069
69396.8375
69856.5443
68898.1494
69149.5862
68689.2455
68582.79
68675.6887
68008.8676
68957.8527
67618.5667
68760.7722
68413.0009
68029.2623
68184.37
73133.2607
73134.4683
73130.6906
73139.5702
73122.9556
73149.6322
73111.0201
73163.1836
73096.2067
73179.1145
73079.4459
73196.6561
73061.3771
73215.3149
73042.4268
73234.7408
73022.874
73254.7122
73002.9134
73275.0615
72982.7024
73295.6221
72962.404
73316.4442
72942.2646
73336.758
72922.5451
73356.164
72903.6023
73373.9831
72885.8605
73389.1381
72869.7411
73400.1531
72855.476
73405.0458
72842.8603
73401.1837
72830.7958
73385.1025
72817.1338
73352.2199
72799.8862
73298.1275
72780.1931
73225.9067
72755.0404
73153.2581
72719.8392
73056.3058
72628.2324
72929.2502
72511.9918
72721.7509
72295.8876
72477.5472
71953.5872
72168.6415
71611.8321
71677.0302
71136.0431
71093.3083
70534.8726
70394.6546
69863.5563
69736.7555
69192.2623
69023.4113
68662.7339
68667.9637
68307.9684
68262.043
68341.4991
67677.0584
68917.1275
67511.534
68431.3829
68289.4576
68152.4153
68195.376
74308.7791
74308.9982
74308.3482
74309.9151
74306.9796
74311.7882
74304.8084
74314.3428
74302.0894
74317.3739
74298.9984
74320.7474
74295.6529
74324.3809
74292.1277
74328.2312
74288.4664
74332.2821
74284.6896
74336.5363
74280.7967
74341.0075
74276.7603
74345.7122
74272.5081
74350.6571
74267.8882
74355.8152
74262.6021
74361.093
74256.1464
74366.2746
74247.7302
74370.8606
74236.1846
74373.7181
74219.7158
74372.4027
74195.5831
74362.4964
74159.6553
74337.1826
74107.2624
74287.1996
74040.7164
74199.8537
73978.3254
74077.3967
73893.9445
73963.1825
73761.2287
73842.6069
73411.1708
73617.1486
73099.8529
73250.2362
72640.5345
72873.3374
72119.4242
72358.6264
71433.7165
71821.2601
70637.4577
71163.2556
69838.1694
70323.078
69065.3149
69517.1814
68467.9541
68696.8001
68402.4899
67950.7368
68743.9029
67521.1222
68851.1006
67635.3269
68047.3023
68251.0739
68176.6858
68210.7252
75876.3249
75877.3573
75874.3831
75881.4291
75867.7581
75890.3085
75856.934
75902.6359
75843.2143
75917.297
75827.4904
75933.5397
75810.3494
75950.8474
75792.1671
75968.8506
75773.1824
75987.2458
75753.5623
76005.7196
75733.4555
76023.8731
75713.0456
76041.1739
75692.6285
76056.8353
75672.4952
76069.7281
75652.8739
76078.3861
75633.6643
76081.0779
75613.9265
76076.2509
75591.2105
76063.2766
75560.5112
76043.5505
75513.5834
76020.957
75440.4186
75997.0337
75335.7422
75952.8558
75203.7413
75831.23
75034.0274
75599.3269
74860.0565
75296.6812
74611.5473
74943.4588
74378.9942
74521.1677
73785.4269
73993.7514
73224.2553
73360.1119
72524.5533
72621.8016
71801.9444
71664.2964
70961.4439
70644.2695
70197.2212
69744.089
69415.9895
68859.1383
68800.16
68145.7911
68586.2385
67844.9586
68701.6322
67625.9735
68784.3428
67753.4401
68220.8295
68103.6483
68004.803
68139.2407
77731.2868
77731.7807
77730.5941
77733.0119
77728.2488
77735.9896
77724.2325
77740.1958
77719.2079
77745.0266
77713.4384
77750.2268
77707.0197
77755.6638
77699.9236
77761.2469
77692.0263
77766.905
77683.1035
77772.579
77672.8001
77778.2363
77660.5848
77783.8427
77645.8402
77788.887
77628.0246
77792.257
77606.5746
77792.1205
77580.791
77785.4707
77550.0871
77767.6675
77514.1184
77731.3843
77472.9851
77666.1339
77426.752
77559.8591
77372.002
77406.4666
77291.1542
77221.9995
77135.9226
77044.9771
76841.6518
76832.231
76356.9661
76480.3039
75812.7284
76037.8272
75244.1215
75347.6748
74577.5781
74707.4407
73802.8907
73827.7192
72961.1069
72869.0508
72044.0163
71833.9773
71111.2134
70864.1453
70142.0895
69890.5093
69338.8005
69159.2874
68888.1041
68503.0256
68736.6518
67964.3165
68948.2753
67799.3697
68844.0422
67673.5869
68271.7993
68383.5107
68070.353
68135.8263
78651.7751
78653.1608
78649.6354
78657.3173
78642.0578
78667.4098
78628.8443
78682.072
78611.659
78699.8169
78591.6121
78719.6909
78569.3247
78741.0986
78545.084
78763.6654
78518.9404
78787.1371
78490.7708
78811.3004
78460.3143
78835.9136
78427.1825
78860.6044
78390.8276
78884.8314
78350.6612
78907.8209
78305.9893
78928.4382
78255.937
78945.1446
78199.2741
78955.7637
78134.0657
78956.9816
78057.5477
78943.1143
77966.0278
78903.633
77854.2013
78819.6352
77712.0538
78661.5711
77518.1141
78391.4986
77234.279
77973.716
76804.0424
77357.3784
76169.3134
76668.7819
75542.1262
75968.7708
74791.4093
74936.5619
73890.3285
73825.6923
72875.6341
72701.6011
71860.3952
71557.0312
70896.1192
70337.508
69972.7707
69234.1935
69132.1324
68215.5879
68639.5323
67629.5373
68357.543
67628.0347
68437.7446
67623.1424
68387.5396
67685.8632
68298.8467
68184.9884
68078.8835
68133.0466
78695.9811
78696.065
78695.6241
78696.2393
78694.5624
78696.8771
78692.8501
78697.8212
78690.6319
78698.8675
78687.9722
78699.8403
78684.8667
78700.5686
78681.2523
78700.8613
78677.009
78700.4803
78671.9568
78699.1102
78665.8476
78696.3218
78658.3524
78691.5291
78649.0417
78683.9425
78637.3509
78672.5309
78622.5086
78656.0058
78603.3618
78632.8383
78577.9902
78601.2697
78543.0308
78559.2311
78492.7159
78503.9057
78417.667
78430.1749
78303.6681
78326.6568
78131.083
78168.5968
77876.1597
77911.625
77517.201
77498.6255
77048.5934
76906.8643
76500.5955
76119.4453
75804.2667
75413.4613
74937.7101
74475.1374
73942.9606
73483.9495
72932.9995
72269.7089
71783.0088
71140.8071
70721.9321
70049.2269
69772.6291
69158.2251
69020.1975
68445.7351
68430.368
68107.7648
68386.4449
67880.4547
68626.5858
67692.3341
68408.7059
67648.8902
68077.9441
68188.6013
68146.2956
68140.7319
78432.4342
78433.4857
78430.0934
78437.2887
78422.5268
78446.3133
78410.0769
78459.0173
78394.3187
78473.9517
78376.2763
78490.1361
78356.5231
78506.8981
78335.3043
78523.7511
78312.6144
78540.2956
78288.2466
78556.1347
78261.8196
78570.7906
78232.7924
78583.6116
78200.4796
78593.6538
78164.0763
78599.5328
78122.6968
78599.2731
78075.3886
78590.1764
78020.9335
78568.7814
77957.104
78530.9387
77879.3203
78471.8596
77778.8821
78385.6296
77640.9368
78262.9826
77443.1783
78085.2465
77158.0735
77814.1435
76761.6164
77389.8779
76244.5741
76779.3332
75613.5344
75981.4345
74853.4596
75109.1112
73964.8023
74079.2468
73008.594
73006.0742
72095.3961
71807.7355
71048.5135
70612.8482
70112.9597
69488.954
69288.8001
68516.2719
68660.2601
67812.2754
68393.3207
67471.2881
68371.1543
67520.8415
68332.3864
67740.9219
68225.4368
67868.9659
68354.4702
68023.4267
68029.2637
68107.2933
77450.481
77450.0682
77449.8707
77449.3015
77448.969
77448.3243
77447.8277
77447.0916
77446.3682
77445.4921
77444.469
77443.3746
77441.9655
77440.5371
77438.6365
77436.709
77434.186
77431.5253
77428.2183
77424.4942
77420.2052
77414.9515
77409.4426
77401.9994
77394.9973
77384.4315
77375.6418
77360.6464
77349.7832
77328.5593
77315.3892
77285.5347
77269.8697
77228.267
77209.7255
77152.3869
77129.8549
77051.768
77022.7301
76917.5321
76877.4609
76736.3312
76678.688
76487.6421
76405.5486
76142.0534
76030.4888
75671.6815
75518.6088
75090.7996
74854.1919
74402.8146
74099.3196
73564.9963
73271.753
72658.7364
72404.0425
71761.9852
71457.9303
70764.7109
70495.1591
69783.5735
69685.3588
68949.5945
68995.5482
68281.7985
68544.5218
67862.0177
68281.792
67694.8225
68184.738
67701.7284
68322.7372
67791.7711
68087.3483
67636.7572
68220.5342
68179.6295
68176.0848
68139.821
75812.3516
75812.0911
75809.6391
75813.7146
75803.2638
75818.2919
75793.8846
75824.6149
75782.3787
75831.6774
75769.24
75838.714
75754.6573
75845.1059
75738.5597
75850.3014
75720.6406
75853.7408
75700.3593
75854.7884
75676.9189
75852.6602
75649.224
75846.344
75615.8246
75834.5044
75574.8584
75815.3699
75524.0028
75786.6056
75460.4694
75745.1995
75381.1236
75687.329