/*--------------------------------*- C++ -*----------------------------------*\
| =========                 |                                                 |
| \\      /  F ield         | OpenFOAM: The Open Source CFD Toolbox           |
|  \\    /   O peration     | Version:  v2006                                 |
|   \\  /    A nd           | Website:  www.openfoam.com                      |
|    \\/     M anipulation  |                                                 |
\*---------------------------------------------------------------------------*/
FoamFile
{
    version     2.0;
    format      ascii;
    class       volScalarField;
    location    "0.0534000002";
    object      rho;
}
// * * * * * * * * * * * * * * * * * * * * * * * * * * * * * * * * * * * * * //

dimensions      [1 -3 0 0 0 0 0];


internalField   nonuniform List<scalar> 
14400
(
0.734964114
0.740166355
0.742946984
0.7454922
0.747736709
0.750135186
0.75218961
0.754625158
0.756592751
0.759144102
0.76108446
0.763799506
0.765758659
0.768669486
0.770686571
0.773817673
0.775933489
0.779302498
0.781542268
0.785133379
0.787484305
0.791233146
0.793629172
0.797373315
0.800333905
0.807424754
0.8145113
0.817976261
0.820936112
0.820176832
0.819653883
0.815976847
0.813603027
0.809425886
0.806623063
0.806516423
0.809979214
0.811576393
0.809274975
0.810012493
0.809374454
0.810000952
0.8092922
0.810084213
0.80934604
0.809807607
0.80954245
0.809781341
0.809434611
0.80933535
0.808996517
0.808911736
0.808773961
0.808660453
0.808520091
0.808285787
0.808073756
0.807712976
0.807437381
0.807024003
0.80671214
0.805875433
0.805961502
0.804183765
0.804905113
0.802354822
0.803688867
0.800098094
0.801811545
0.797957208
0.800342455
0.79643802
0.799329283
0.793792115
0.795354824
0.791032861
0.788929639
0.787860434
0.788631685
0.784050896
0.730744211
0.733466118
0.734889335
0.736327569
0.737483187
0.738994877
0.740041152
0.741714445
0.74268744
0.744557344
0.745480677
0.747576823
0.74848081
0.750833413
0.751754294
0.754394863
0.755380175
0.758350481
0.759465479
0.762817819
0.764143155
0.76794233
0.76957785
0.77390648
0.775975918
0.780939432
0.783538088
0.789048075
0.791954101
0.797637298
0.800354371
0.805549274
0.807381087
0.811555571
0.811245531
0.807650707
0.802729666
0.804865308
0.806533252
0.805508796
0.805904049
0.805569814
0.805728884
0.805104812
0.805991151
0.805047528
0.805639745
0.805296947
0.805331459
0.805244049
0.805294893
0.805189024
0.805229956
0.804977163
0.805040216
0.804817976
0.804624032
0.804513918
0.804388996
0.804268955
0.804060451
0.804307859
0.803625399
0.804274585
0.803019242
0.803786327
0.802150307
0.803310287
0.801410428
0.804284116
0.800868481
0.806447714
0.80258721
0.802243713
0.804549588
0.805170268
0.804692756
0.80091096
0.801039576
0.797917063
0.730979502
0.733370562
0.734742756
0.735785736
0.737156435
0.737971747
0.739516302
0.740152443
0.74192325
0.742396134
0.744423871
0.744748974
0.74705889
0.747257428
0.749873306
0.749974525
0.752921606
0.752964392
0.756270879
0.75630673
0.76000578
0.760101599
0.764236072
0.764474742
0.769098722
0.769580238
0.774757005
0.77558842
0.781376116
0.782643247
0.78905354
0.790751772
0.797655672
0.799512516
0.806217826
0.806247248
0.810450904
0.80442669
0.808054818
0.805368484
0.80816756
0.80518036
0.808661328
0.804772627
0.808075258
0.805151937
0.807295679
0.804768312
0.807816663
0.805284809
0.808109686
0.805417234
0.80782067
0.80533089
0.807453619
0.805128229
0.807100408
0.804987762
0.806324642
0.804774708
0.805843547
0.804069948
0.804977296
0.803218146
0.804125637
0.802251833
0.803593344
0.800830849
0.802417003
0.798995016
0.801377647
0.795909742
0.801554329
0.802318748
0.798059946
0.797019253
0.798411868
0.796780536
0.796487938
0.790171424
0.723627132
0.725940314
0.72714551
0.728367227
0.729321646
0.730589787
0.731410031
0.7327962
0.733505577
0.735042183
0.735654517
0.737365585
0.737895547
0.739801609
0.740266941
0.74238718
0.742810551
0.745164959
0.745576126
0.748187729
0.748625835
0.751522987
0.752038894
0.755258043
0.75591654
0.759505717
0.760387073
0.764404883
0.76560739
0.770124615
0.771752846
0.776832982
0.778954556
0.784582488
0.787067643
0.792854691
0.794831967
0.799168159
0.798518639
0.798883793
0.798544715
0.798340953
0.799160928
0.799131051
0.79876803
0.799313805
0.799396484
0.798647799
0.798593069
0.79808677
0.798384912
0.798189186
0.798342544
0.798206576
0.798198352
0.798081189
0.798073908
0.798345097
0.798076003
0.797981486
0.797971511
0.797918804
0.797992884
0.79806951
0.798269567
0.798339763
0.798472405
0.798874802
0.799170353
0.800451223
0.800306709
0.80243814
0.799222643
0.79882501
0.80367009
0.79855207
0.800410244
0.797378396
0.799979065
0.796833035
0.720162885
0.722422
0.723748197
0.724697489
0.726064935
0.726726878
0.728299617
0.728699021
0.730534795
0.730675791
0.732813324
0.732701492
0.735169789
0.73481441
0.737635541
0.737050638
0.740242358
0.739448284
0.743026527
0.74205195
0.746033073
0.74491711
0.749319995
0.748114355
0.75296267
0.751733854
0.757058726
0.755890227
0.761733002
0.760726445
0.767141459
0.766410233
0.773447945
0.773097786
0.780762676
0.780785678
0.788856918
0.788801185
0.796394742
0.794211104
0.798456143
0.793701096
0.796970789
0.794020466
0.797381621
0.793283758
0.797328711
0.794132402
0.797224458
0.794336407
0.797210284
0.79427055
0.797119537
0.794056065
0.796994369
0.794079472
0.796900251
0.793955077
0.796435893
0.793732187
0.796070995
0.793685834
0.795805267
0.793090099
0.795377645
0.792549885
0.795201882
0.792407063
0.794395846
0.792858669
0.793849902
0.794842908
0.792897137
0.795444774
0.796839002
0.798694337
0.801216416
0.79820283
0.800617756
0.798178183
0.714350327
0.716605172
0.717794527
0.718984526
0.71993029
0.721138956
0.721941591
0.72323559
0.723916761
0.725332988
0.725907474
0.727473398
0.727954504
0.729691014
0.730092071
0.732015823
0.732351986
0.734477798
0.734768133
0.737111164
0.737380869
0.739958566
0.740241177
0.743075092
0.743414655
0.746532394
0.746985677
0.750423315
0.751062142
0.754867103
0.755779977
0.760014351
0.761304643
0.766036322
0.767801088
0.773079128
0.775337656
0.781068221
0.783484461
0.788902452
0.788913212
0.791647201
0.789030287
0.790835127
0.789428553
0.791648304
0.789031627
0.790993103
0.789352933
0.790686992
0.789133756
0.790414467
0.789000666
0.790406617
0.789020767
0.790403302
0.789068158
0.789971336
0.789181957
0.79016533
0.78942328
0.789943047
0.790108995
0.789974621
0.790838312
0.789744309
0.791806059
0.789686866
0.792994375
0.789635202
0.793474801
0.78771621
0.793164137
0.788678894
0.793054169
0.784471166
0.7899315
0.787911399
0.788514451
0.79126151
0.717319078
0.719531113
0.720879371
0.721752495
0.723206577
0.723687002
0.725421923
0.725511219
0.727607622
0.727297569
0.729813068
0.729099584
0.732074733
0.730958609
0.734421066
0.732908475
0.736876988
0.734980545
0.739468135
0.737208605
0.742224921
0.739633392
0.745186511
0.742306725
0.748404768
0.745295352
0.751948364
0.748684906
0.755907419
0.752584437
0.760398707
0.757130842
0.765569345
0.762489488
0.771590326
0.768828796
0.778608664
0.776215695
0.786527371
0.784146282
0.794055945
0.790194906
0.795958563
0.790647906
0.794315459
0.790782191
0.795063203
0.790872542
0.795191354
0.791147174
0.794882196
0.790963026
0.794736682
0.79104106
0.794618414
0.79110995
0.794339755
0.791180867
0.794275842
0.791129771
0.793800408
0.790767766
0.793263351
0.790164199
0.792697696
0.789788394
0.792205594
0.78956235
0.791931682
0.789244184
0.791380895
0.790008147
0.793677634
0.788900562
0.794554822
0.796495931
0.794216732
0.795821142
0.792776457
0.79479455
0.71464685
0.7168916
0.718126514
0.719255076
0.720304801
0.721344361
0.722318566
0.72332633
0.72426386
0.725274453
0.726202423
0.727240621
0.728178651
0.729262454
0.730225524
0.731369022
0.732370125
0.733586016
0.734638533
0.735940321
0.737060255
0.738464263
0.739672413
0.741199656
0.742523774
0.744201796
0.745678835
0.74754347
0.749222189
0.751319742
0.753262679
0.755653247
0.757939773
0.760698273
0.763423049
0.766633736
0.769889433
0.77361534
0.777416924
0.78157272
0.785610597
0.789867215
0.789338417
0.791845573
0.790269427
0.790068851
0.79011736
0.790580707
0.789784946
0.790459852
0.789954633
0.790431128
0.790007957
0.790175611
0.790315913
0.789944603
0.790552994
0.789810364
0.791070831
0.789263707
0.79137631
0.789085064
0.792084566
0.789227956
0.792770818
0.789213451
0.793799942
0.789727351
0.794881983
0.789996646
0.794734498
0.789189991
0.793415619
0.791100165
0.789695293
0.788932566
0.787870188
0.791482054
0.787956481
0.788793454
0.714570349
0.716831343
0.718301062
0.719066733
0.720781549
0.720928136
0.72311982
0.722608521
0.725411955
0.724205085
0.727715789
0.725786709
0.730069005
0.727402136
0.732497591
0.729087352
0.735021824
0.730872072
0.737660638
0.732785217
0.740435313
0.734859715
0.743373039
0.737136852
0.746510641
0.739670278
0.749898543
0.742529905
0.753605235
0.745806252
0.757723645
0.749616283
0.762374859
0.754109986
0.767714635
0.759470381
0.773929134
0.765894403
0.781181124
0.773487732
0.789385123
0.781804353
0.795802216
0.786884695
0.795487445
0.788022294
0.795018383
0.78764806
0.794653781
0.787739781
0.794599454
0.788063021
0.794488643
0.787984051
0.794126491
0.788102118
0.793708929
0.788046192
0.793291979
0.788090686
0.793112374
0.787881061
0.79214062
0.787318276
0.791391293
0.786110441
0.790966785
0.785063796
0.790122697
0.78518359
0.789521714
0.786100377
0.789574893
0.787550201
0.788143805
0.794973657
0.786771725
0.792764099
0.791802509
0.789417663
0.710449342
0.712757602
0.714192135
0.715100917
0.71662081
0.717051883
0.718864112
0.718811969
0.721035652
0.72048606
0.723203946
0.722144538
0.725412667
0.723834845
0.72769147
0.725590458
0.730063091
0.727437648
0.732548253
0.729400742
0.735169593
0.731506563
0.737955268
0.733788461
0.740942504
0.73629011
0.744181147
0.739069284
0.747737303
0.742202163
0.751697428
0.745789072
0.756173023
0.749962157
0.761304578
0.75489324
0.767257711
0.760792685
0.774183767
0.767863667
0.782019031
0.776046481
0.789037775
0.783425907
0.790764955
0.783491533
0.791020692
0.783760907
0.791314144
0.783805791
0.79099617
0.783502891
0.790747017
0.783524914
0.79055435
0.783476053
0.790669008
0.783042637
0.790633744
0.783220238
0.790661853
0.783330299
0.791146857
0.783300074
0.791395907
0.783752447
0.791688478
0.78447472
0.790438844
0.785886395
0.78799541
0.788212823
0.783471957
0.793194464
0.78304122
0.791695478
0.78899093
0.789760688
0.79303714
0.792828467
0.712880001
0.7151743
0.716859374
0.717333538
0.719605397
0.718968688
0.722213232
0.720320415
0.724795079
0.721524559
0.72740866
0.722672857
0.730085546
0.723827191
0.732845218
0.725030782
0.735702203
0.726316727
0.738670051
0.727714639
0.741764251
0.729256102
0.745005048
0.730979416
0.748420579
0.73293374
0.752050392
0.735182762
0.755949328
0.737808567
0.76019191
0.74091565
0.764876876
0.744637663
0.770132339
0.749144446
0.776114898
0.754643107
0.782984089
0.761345005
0.790763199
0.769279201
0.798489472
0.778997032
0.800369342
0.781819683
0.799049061
0.781653176
0.798653951
0.781370295
0.798260896
0.781633098
0.797974579
0.78178516
0.797340318
0.781809265
0.796395108
0.783030931
0.795546137
0.78349706
0.794294633
0.783926078
0.792614717
0.784512816
0.789880939
0.785206367
0.787555009
0.786626721
0.784973001
0.787222328
0.782698062
0.790092891
0.783387593
0.787155618
0.784015107
0.786174913
0.785034067
0.784658233
0.78439757
0.786010799
0.708755705
0.71110311
0.712854535
0.713300455
0.715679011
0.714900691
0.718350753
0.71617672
0.720996796
0.717282527
0.72367727
0.718318215
0.726422619
0.719349538
0.729250608
0.72042109
0.732174071
0.72156564
0.735204843
0.722811087
0.738356434
0.724186058
0.741646583
0.72572477
0.745100168
0.727471425
0.74875258
0.729484242
0.752653453
0.731842339
0.756868451
0.734637248
0.761494678
0.738001654
0.766648122
0.742102144
0.772474315
0.747148843
0.779127194
0.753383358
0.786672592
0.761030735
0.794662006
0.771633365
0.79681647
0.775973267
0.797286576
0.776786811
0.797142338
0.777610032
0.796309893
0.778080382
0.795321106
0.779044428
0.794384482
0.780380611
0.793379638
0.780807531
0.791917841
0.782092437
0.790414589
0.783804921
0.788442809
0.785966842
0.787341595
0.788479713
0.785554797
0.79107007
0.78362929
0.792824042
0.781950329
0.790987243
0.782128869
0.789759448
0.785511379
0.7873218
0.789861712
0.789373821
0.787183134
0.788837142
0.708355935
0.710766047
0.712668329
0.712950979
0.71569008
0.714422442
0.718574114
0.715501105
0.72145732
0.716368461
0.724394976
0.717141069
0.727410062
0.717895636
0.730513333
0.718684659
0.733711152
0.719547299
0.73700865
0.720517414
0.740411451
0.721629951
0.74392728
0.72292635
0.747568099
0.724459215
0.751353067
0.726296244
0.755312536
0.728523333
0.75949336
0.731246278
0.763968985
0.734602229
0.768838173
0.738754331
0.774249434
0.743888677
0.78040951
0.750195664
0.787576326
0.75779148
0.796035661
0.766857223
0.800214114
0.775456975
0.797530966
0.776152547
0.79585399
0.776534229
0.795115595
0.777661425
0.794290556
0.77881079
0.792813926
0.779696669
0.791138811
0.782285761
0.789243134
0.784250255
0.786944392
0.786451158
0.784129195
0.788821487
0.7812107
0.79063876
0.77852409
0.790792891
0.777347534
0.790796071
0.778885178
0.786474676
0.784389935
0.782269945
0.787208339
0.784233546
0.783884642
0.788432572
0.784756497
0.784980692
0.706952773
0.709479376
0.711095831
0.712041708
0.713697808
0.713977752
0.716008004
0.71561533
0.718213937
0.717116028
0.720404819
0.718572705
0.722627904
0.720042875
0.724910948
0.721564907
0.727272239
0.723167397
0.729725769
0.724875436
0.73228453
0.726715456
0.734963234
0.728719417
0.737781041
0.73092863
0.740764593
0.733397194
0.743951532
0.73619509
0.747394874
0.739411377
0.751169137
0.743158223
0.755379446
0.747575748
0.760174798
0.752834635
0.765764682
0.759121852
0.772432736
0.766539724
0.780509195
0.774333432
0.78747188
0.782769463
0.787518837
0.783678215
0.78748
0.78376556
0.78766685
0.783873541
0.787195361
0.784158084
0.786776769
0.78482438
0.786456369
0.784816963
0.785957748
0.785336011
0.785307472
0.786242882
0.784970203
0.786924951
0.784374669
0.787828515
0.784110383
0.788396428
0.78351912
0.78856429
0.782227764
0.786909299
0.780749189
0.782377287
0.781220802
0.784023353
0.781735439
0.783327504
0.783958332
0.784866523
0.711222971
0.713829912
0.715364028
0.716567227
0.717812434
0.718678541
0.719887155
0.720521761
0.721810306
0.72225597
0.723687743
0.723965848
0.725576949
0.725701836
0.727512231
0.727497245
0.729516048
0.729377229
0.731605103
0.731364496
0.733794324
0.733483701
0.736100104
0.735765371
0.738543446
0.738249652
0.741153317
0.740989772
0.743970329
0.744055026
0.747051066
0.747533317
0.750473909
0.75153343
0.754347214
0.756186551
0.758822288
0.761641666
0.764117645
0.768040844
0.770521398
0.775390908
0.778371338
0.782695006
0.788225671
0.789728953
0.789712736
0.791039157
0.789845128
0.79129717
0.789261116
0.791211166
0.78871465
0.791208065
0.78839636
0.790994135
0.787972119
0.790083522
0.787530848
0.789725957
0.787166284
0.789169362
0.786761916
0.787777837
0.786509826
0.786467066
0.785943392
0.785561062
0.784760606
0.785091003
0.783149726
0.785723289
0.782223692
0.788064848
0.785690759
0.784127501
0.785031064
0.785774016
0.782563426
0.784846216
0.711006795
0.713721228
0.715096685
0.716725335
0.717263148
0.719158169
0.718922438
0.7213988
0.720345922
0.723589176
0.721667628
0.72579417
0.722964193
0.728048356
0.724283021
0.73037308
0.725655691
0.732783933
0.727105771
0.735294803
0.728654177
0.73792077
0.730323455
0.740680792
0.732141672
0.743600595
0.734146191
0.74671582
0.736387314
0.750075291
0.738931825
0.753744529
0.741867288
0.757809935
0.745308129
0.762383163
0.749404075
0.767608433
0.754342319
0.77365755
0.760349217
0.780662805
0.767640799
0.78836734
0.777206911
0.795026694
0.782384762
0.795540083
0.782882461
0.794957776
0.78347371
0.794350659
0.783976862
0.79387938
0.784506277
0.792791191
0.785337474
0.791892513
0.786428751
0.790797265
0.787621701
0.78864099
0.788861462
0.787255359
0.789909288
0.786035727
0.789930874
0.785111083
0.788469441
0.783464686
0.784039175
0.786089542
0.778830483
0.784852247
0.780819194
0.782244581
0.781307969
0.782449169
0.77991157
0.780788667
0.716442465
0.7191602
0.720597687
0.722118509
0.722793824
0.724431259
0.724482504
0.726527664
0.72594808
0.728560668
0.727322008
0.730599935
0.728677269
0.732683169
0.730058533
0.734834083
0.731495626
0.737070287
0.73301109
0.739407623
0.734625264
0.741863303
0.73636034
0.744458786
0.738244077
0.747222823
0.740313419
0.750194736
0.742618038
0.753427839
0.745223919
0.756992954
0.748217748
0.760982208
0.751713115
0.765513552
0.755858157
0.770734077
0.76083966
0.776803446
0.766872316
0.783847386
0.774167379
0.791784332
0.783402828
0.798461898
0.789704902
0.799574422
0.789652562
0.79926011
0.789035471
0.799062095
0.789040137
0.797926931
0.789056861
0.797667585
0.789051454
0.797862286
0.789044869
0.797269704
0.788694961
0.796788057
0.788161993
0.794941054
0.787147821
0.792391457
0.786867671
0.789183398
0.786581983
0.785532159
0.787469503
0.782779111
0.789846431
0.789553006
0.783490726
0.785477062
0.78473811
0.787114569
0.783543127
0.784392648
0.721639916
0.724402153
0.725722647
0.727501355
0.727665061
0.73000064
0.728995491
0.732352141
0.730038342
0.734690872
0.730945197
0.737068753
0.731802383
0.739510242
0.732663399
0.742029723
0.733563834
0.744638039
0.734530179
0.747345503
0.735585966
0.750163902
0.736756694
0.753108456
0.738074255
0.756200144
0.739581031
0.759468493
0.74133322
0.762955853
0.743403955
0.766718345
0.745884139
0.770831986
0.748884451
0.775396574
0.752540566
0.780550504
0.757022416
0.786471171
0.762552066
0.793365114
0.769452893
0.801355628
0.778316323
0.808450564
0.787196364
0.809215354
0.788999045
0.808824377
0.790426665
0.808024437
0.791030787
0.807610643
0.791942687
0.806481148
0.792703816
0.80485126
0.793317617
0.802873948
0.794212462
0.800504253
0.794727459
0.798148901
0.794896561
0.794574096
0.794427345
0.790714968
0.793439004
0.790248713
0.792506306
0.789767041
0.787293782
0.786336287
0.783971513
0.789222442
0.782246599
0.783425688
0.781059268
0.781032018
0.72534244
0.728191014
0.729605123
0.731320617
0.731616395
0.733760603
0.733002927
0.736025613
0.734107468
0.738262264
0.735081579
0.740527141
0.736009262
0.742847256
0.736941683
0.745238435
0.737912381
0.747712277
0.738945983
0.750279467
0.740064189
0.752952013
0.741290653
0.755745438
0.742655593
0.758681423
0.744200373
0.761791075
0.745981789
0.765118584
0.748075564
0.768722002
0.750578165
0.772687781
0.753612116
0.777125158
0.757329853
0.782171504
0.76191391
0.787999024
0.76758303
0.794800641
0.774591829
0.802663176
0.783143321
0.809578679
0.793675118
0.810426798
0.79435663
0.809873558
0.794713964
0.8091081
0.795051953
0.808793603
0.796013381
0.807796782
0.79590395
0.806599972
0.796112395
0.805107901
0.796302162
0.803470541
0.796287111
0.801649826
0.79616423
0.799161695
0.796159957
0.796638315
0.796729354
0.794858893
0.797189751
0.792648814
0.798016494
0.792034416
0.788261173
0.792691452
0.790428634
0.791331262
0.786648855
0.78516023
0.727362484
0.730292424
0.731706581
0.733515162
0.733631102
0.736027441
0.734868883
0.738388509
0.73579267
0.740740183
0.736564632
0.743131631
0.737274729
0.745583865
0.737977602
0.748108181
0.738708619
0.750712569
0.739493134
0.753404387
0.74035283
0.756192007
0.741310868
0.75908644
0.742396746
0.762103488
0.743651217
0.765266717
0.745131038
0.768611351
0.746912938
0.772188824
0.74909673
0.776073589
0.7518092
0.780366423
0.755208017
0.785201257
0.759484075
0.790760637
0.764863177
0.797259542
0.771581351
0.804872286
0.779622441
0.812577641
0.79079227
0.814037675
0.793881361
0.813411193
0.794599031
0.812763329
0.794947008
0.811659516
0.795146257
0.810146459
0.796548561
0.808611323
0.797327253
0.806772021
0.798761458
0.80532479
0.799619612
0.802275607
0.801016316
0.799998298
0.801871441
0.797723599
0.801519012
0.796520422
0.79964209
0.794694294
0.794609765
0.789140067
0.793838033
0.794233265
0.788021717
0.790311121
0.790447206
0.786067558
0.729156971
0.732165671
0.733729098
0.735355334
0.735815669
0.737694314
0.737251255
0.739821473
0.73841161
0.741900671
0.739448391
0.743994079
0.740442301
0.746131249
0.741441312
0.748328983
0.742476186
0.750598771
0.743568894
0.752950306
0.744738162
0.755393781
0.746003904
0.757942069
0.747391477
0.76061336
0.748936204
0.763434562
0.750688154
0.766445493
0.752716859
0.769703485
0.75511607
0.773287783
0.758009603
0.777302798
0.761559483
0.781880589
0.765973636
0.787182885
0.771495859
0.793411077
0.778318693
0.800797844
0.786215463
0.809172132
0.796115312
0.812108448
0.799184235
0.811220183
0.799367323
0.810478816
0.799695875
0.809365698
0.799542676
0.809381735
0.799783308
0.808408799
0.799802136
0.807943075
0.798975326
0.806839617
0.799038674
0.805127991
0.798579795
0.802913491
0.798753091
0.800731626
0.799226594
0.796144155
0.798294013
0.791690404
0.796653433
0.791145537
0.792317337
0.791964082
0.792133091
0.790497942
0.79487792
0.789955638
0.731880927
0.734958815
0.736519337
0.738222626
0.738511477
0.74062082
0.739799469
0.742834821
0.740784622
0.74502196
0.741627926
0.747236814
0.74241587
0.749503126
0.743200355
0.751833399
0.744014914
0.754235631
0.74488362
0.756716049
0.745826964
0.759280604
0.746866468
0.761936305
0.748028936
0.764693067
0.749349777
0.767566829
0.750877885
0.770582895
0.752685747
0.773781326
0.754855661
0.777224137
0.757492139
0.781012642
0.760714808
0.785292017
0.764659761
0.790268664
0.769494088
0.796175062
0.775465699
0.803188719
0.782910255
0.81131467
0.793690883
0.8152638
0.798662365
0.814117604
0.798102986
0.814166135
0.799629249
0.812574985
0.800011365
0.81057153
0.800103092
0.809165417
0.800937289
0.807401902
0.801136637
0.804942511
0.801669513
0.802326779
0.801730211
0.798899644
0.800140905
0.795836811
0.797384101
0.791875454
0.792272405
0.790038376
0.791078699
0.787859581
0.794070537
0.78965475
0.789313637
0.786988454
0.795750248
0.791522395
0.736901028
0.739948094
0.741614551
0.743055852
0.743719383
0.745161785
0.745197941
0.747018988
0.746435144
0.748806029
0.747572034
0.750591925
0.748680656
0.752410782
0.749803499
0.754282435
0.750968332
0.756220231
0.752195765
0.758234694
0.753504012
0.760335773
0.754912547
0.762534763
0.756445525
0.764846496
0.758135389
0.767292171
0.760026825
0.769902899
0.762181039
0.772723851
0.764680884
0.775819444
0.767636983
0.77927894
0.77120101
0.783225847
0.775572543
0.787844538
0.780976568
0.79349319
0.787531943
0.800750686
0.794959809
0.810377065
0.803246338
0.814767638
0.808850528
0.813689885
0.808867429
0.813204852
0.808146156
0.812717293
0.807913832
0.811918033
0.807179373
0.811607248
0.805722065
0.810210312
0.80402404
0.808337315
0.801308367
0.806370298
0.799005723
0.803795177
0.79677742
0.801050745
0.79452866
0.796805962
0.793045565
0.789898136
0.78943261
0.787338529
0.789350563
0.785522915
0.790464971
0.784167478
0.79154523
0.790766645
0.743163192
0.746191834
0.747838143
0.74926458
0.749832708
0.751317304
0.751184536
0.753138788
0.752288035
0.754901873
0.753284735
0.756670422
0.754246657
0.758475272
0.755216191
0.760334491
0.75622094
0.762260805
0.757281309
0.764265089
0.75841521
0.766358465
0.759643298
0.768554352
0.760991052
0.77087062
0.762493375
0.773332441
0.764198405
0.775975811
0.766172804
0.778852192
0.768505203
0.78203651
0.771310301
0.785629536
0.774732527
0.789763408
0.778948279
0.794606489
0.784153258
0.800319252
0.790504369
0.807039037
0.797923308
0.815272915
0.806225863
0.821084392
0.811734132
0.82108262
0.81228412
0.81956373
0.81146247
0.819098496
0.811058385
0.817790994
0.811273248
0.815375595
0.809868195
0.812665994
0.808730756
0.809615238
0.806956988
0.807065849
0.804336769
0.803499195
0.800652413
0.800089905
0.796638756
0.796047926
0.792571371
0.792871661
0.792798823
0.790250414
0.796414906
0.786825787
0.792493881
0.787167868
0.788640426
0.790162724
0.750311268
0.753282426
0.754958935
0.756232548
0.756950762
0.758084041
0.758345693
0.759675531
0.759527876
0.761188201
0.760626063
0.762691205
0.761703243
0.764219244
0.762795872
0.765793059
0.763927703
0.767427188
0.765116548
0.769133741
0.766378465
0.770924789
0.767731041
0.772814394
0.769196595
0.774820864
0.770805749
0.776969493
0.772601432
0.779295925
0.774642988
0.781850089
0.777010086
0.784701027
0.779806572
0.787943553
0.783164805
0.791707179
0.787250152
0.796168
0.792262078
0.801551609
0.798428509
0.808100951
0.805930032
0.81624691
0.81413766
0.822439485
0.819419102
0.822641525
0.819498736
0.821671185
0.819041886
0.820851417
0.817811538
0.820762109
0.81686504
0.81871951
0.814822905
0.817510203
0.812030101
0.815524517
0.808255882
0.812355203
0.803987202
0.808715388
0.800540454
0.803597658
0.796264533
0.798540191
0.794331426
0.792965398
0.79125948
0.787456339
0.793981175
0.784660333
0.794740496
0.790147907
0.787509942
0.788449155
0.76011216
0.762958747
0.764591544
0.765777
0.766461386
0.767483123
0.76775408
0.768939038
0.768848307
0.770321089
0.769866068
0.771695418
0.770866281
0.773095643
0.77188319
0.774542026
0.772939437
0.776049393
0.774052338
0.777630536
0.775237663
0.779298424
0.776512596
0.781070991
0.777899205
0.782963
0.779426327
0.785001184
0.781133857
0.78722191
0.783076805
0.789674085
0.785328807
0.792424037
0.787985583
0.795560936
0.79116955
0.799204363
0.795034556
0.80351396
0.799772037
0.808698732
0.805615984
0.81504608
0.812816823
0.823096498
0.821120214
0.830351936
0.827192748
0.830980806
0.827021646
0.829860963
0.82623183
0.828085433
0.82452942
0.826074907
0.821819004
0.823638064
0.819021264
0.819119102
0.814996441
0.814388624
0.80988468
0.808480299
0.804432265
0.803156344
0.798737558
0.796990406
0.794450231
0.794982064
0.791318212
0.791605781
0.793521365
0.787090708
0.798060362
0.784287118
0.791367127
0.791960652
0.789648612
0.789539492
0.772002389
0.774588166
0.776151311
0.777156657
0.777888377
0.778591801
0.779111449
0.779768783
0.780176737
0.780862388
0.781189715
0.781938844
0.782199124
0.783032587
0.783233171
0.784165417
0.784311118
0.785353779
0.785448487
0.786612452
0.78666007
0.787957001
0.787962174
0.789405916
0.789374724
0.790982901
0.79092357
0.79271955
0.792642959
0.794658291
0.794578344
0.796855316
0.796789257
0.799383135
0.799353482
0.802333551
0.802373017
0.805821246
0.805983284
0.809991001
0.810363103
0.815028115
0.815747233
0.82116543
0.822449056
0.828684758
0.830290264
0.836400805
0.836515947
0.838171116
0.836116177
0.837369034
0.833385051
0.835362812
0.830915462
0.83223602
0.827465467
0.829219193
0.823086236
0.825061851
0.81741771
0.820471373
0.810894515
0.814837611
0.804281769
0.807937625
0.797701544
0.801174422
0.792711233
0.794855143
0.791582541
0.787930823
0.792419053
0.783286632
0.793326144
0.785391486
0.789174497
0.78904783
0.788935755
0.788928095
0.78636993
0.788619541
0.79003133
0.790984402
0.791504645
0.792301709
0.792460289
0.79341424
0.793250791
0.794474938
0.793979317
0.795536316
0.794693927
0.796624169
0.795422711
0.797754553
0.796185085
0.798939735
0.79699723
0.800191051
0.797875686
0.80152089
0.7988406
0.802944717
0.799918808
0.804481923
0.801144775
0.806157624
0.802563302
0.808005774
0.804229732
0.810072728
0.806208035
0.8124247
0.80856809
0.815159794
0.81138216
0.818425965
0.814727064
0.822437976
0.818711842
0.827453112
0.823554173
0.833626036
0.82962127
0.840859806
0.83693181
0.847544639
0.842686149
0.848873031
0.842118395
0.846173298
0.840850205
0.842622183
0.83621156
0.838134785
0.831808896
0.832936925
0.826703245
0.827080148
0.820248002
0.819066678
0.813460966
0.810415363
0.807120126
0.803109212
0.800513535
0.796150035
0.795564273
0.790225246
0.793837839
0.787831262
0.797338628
0.787009823
0.796144162
0.785273914
0.789899209
0.790457975
0.788203389
0.788789685
0.804733012
0.805990894
0.807056181
0.807744007
0.808173323
0.808653763
0.808896745
0.809414168
0.8095439
0.810162713
0.81018981
0.810937324
0.810862455
0.811757131
0.811578221
0.81263535
0.812348067
0.813581869
0.813178451
0.814602583
0.814068687
0.815695431
0.815005858
0.81685156
0.815984262
0.818085549
0.817036139
0.819435413
0.818212113
0.820946979
0.819576923
0.822671492
0.821212404
0.824660778
0.82321991
0.826962389
0.8257299
0.82962281
0.828905755
0.832709297
0.832924455
0.836388839
0.837903276
0.84108863
0.843778442
0.847534382
0.850474468
0.855998569
0.85486197
0.858161213
0.852707243
0.855279488
0.848111358
0.849588727
0.842920152
0.844398663
0.836600041
0.836860651
0.830067977
0.829125191
0.82248556
0.820363392
0.814774856
0.812346013
0.806562738
0.804328848
0.799852209
0.79854811
0.796145654
0.792640741
0.795023973
0.787792094
0.794880063
0.785369904
0.793681606
0.786302708
0.791187938
0.790252287
0.788331007
0.788716636
0.813126865
0.814699895
0.815885476
0.816692384
0.817050976
0.817736837
0.817709927
0.818610509
0.818209696
0.819450931
0.818644656
0.820299315
0.819055925
0.821175014
0.81946642
0.822090795
0.819891156
0.823057471
0.820341647
0.824085732
0.820828279
0.825187098
0.821362032
0.826374714
0.821956579
0.827666129
0.822633424
0.829087066
0.823426141
0.830675651
0.824385772
0.832488136
0.825584451
0.834601051
0.827115324
0.837109614
0.829094173
0.840120272
0.8316635
0.843733617
0.834993672
0.848019966
0.839264346
0.853010638
0.844630558
0.858730496
0.85123521
0.865115468
0.857588988
0.865710998
0.855411173
0.860372789
0.850575004
0.854518361
0.844611961
0.845882692
0.837231025
0.836459636
0.829376695
0.827371859
0.820783977
0.817996156
0.812857835
0.808091749
0.805046411
0.798831507
0.798169293
0.790931634
0.794257849
0.785357619
0.792383184
0.785408044
0.794057073
0.786863717
0.792209437
0.784123608
0.790907621
0.790852959
0.788495545
0.788406315
0.81429438
0.816148726
0.817522797
0.818344742
0.818909202
0.819408537
0.819785471
0.820223919
0.820515767
0.820957122
0.82119181
0.821661768
0.821850335
0.822362165
0.822510188
0.823071748
0.823182955
0.823799434
0.823877426
0.824552604
0.824602137
0.825338953
0.825367265
0.82616803
0.826186549
0.827053156
0.827079868
0.828014746
0.828077321
0.829085994
0.829224444
0.830320833
0.830586431
0.831801389
0.832247917
0.83364258
0.834308695
0.83599329
0.836878067
0.839028743
0.840068884
0.842920917
0.843997747
0.847782132
0.848795141
0.853622681
0.854630676
0.860273746
0.860055371
0.86228341
0.85810291