/*--------------------------------*- C++ -*----------------------------------*\
| =========                 |                                                 |
| \\      /  F ield         | OpenFOAM: The Open Source CFD Toolbox           |
|  \\    /   O peration     | Version:  v2006                                 |
|   \\  /    A nd           | Website:  www.openfoam.com                      |
|    \\/     M anipulation  |                                                 |
\*---------------------------------------------------------------------------*/
FoamFile
{
    version     2.0;
    format      ascii;
    class       volScalarField;
    location    "0.0534000002";
    object      T;
}
// * * * * * * * * * * * * * * * * * * * * * * * * * * * * * * * * * * * * * //

dimensions      [0 0 0 1 0 0 0];


internalField   nonuniform List<scalar> 
14400
(
330.632683
328.313939
327.073379
325.982976
324.963461
323.982639
323.022891
322.073282
321.125697
320.174267
319.213632
318.239977
317.24929
316.239238
315.206252
314.148422
313.06187
311.94757
310.804126
309.637959
308.449843
307.254797
306.054421
304.889284
303.485301
301.091317
298.199661
297.203997
295.861469
296.401527
296.317827
297.919606
298.51222
300.320025
301.082884
301.38936
299.81964
299.492137
300.060822
300.046835
299.999122
300.020358
299.998925
299.949514
299.941625
299.999901
299.823867
299.942012
299.809102
300.020792
299.907208
300.069897
299.911226
300.031211
299.905123
300.011148
299.932717
300.01792
299.986218
299.98641
300.01031
299.962504
300.067596
299.975989
300.169685
299.989084
300.240242
300.040218
300.268512
300.579257
300.105724
301.264816
300.050152
301.952938
301.106609
301.828554
301.686216
301.806893
302.123943
302.030714
330.879101
329.656956
328.998211
328.398175
327.816958
327.239172
326.657336
326.067253
325.466005
324.850864
324.219061
323.567362
322.892762
322.191808
321.461449
320.697321
319.895266
319.04914
318.154197
317.202784
316.189728
315.105129
313.943694
312.692362
311.345977
309.888647
308.336777
306.712539
305.056798
303.413832
301.853091
300.434941
299.22684
298.21204
297.805533
299.652931
300.968065
300.689066
299.553749
300.446575
299.793275
300.422317
299.86385
300.59431
299.771898
300.615515
299.908028
300.521016
300.027419
300.539101
300.041834
300.552224
300.055095
300.60805
300.089803
300.611671
300.162365
300.639807
300.156713
300.656489
300.261378
300.648406
300.343649
300.63277
300.420835
300.606436
300.549874
300.412176
300.542993
299.501403
300.585929
298.092084
299.927433
299.290931
299.064421
297.742254
298.134848
298.003156
297.746659
297.875224
332.04847
330.95776
330.37074
329.838293
329.326311
328.821443
328.317191
327.809687
327.296202
326.774397
326.242041
325.696947
325.13672
324.559018
323.960999
323.340015
322.692502
322.015379
321.304055
320.554954
319.762088
318.921412
318.025108
317.068918
316.042793
314.943205
313.758018
312.487287
311.118103
309.660268
308.103185
306.479681
304.786975
303.120325
301.551021
300.58996
299.973507
301.275463
300.860162
300.929605
300.813994
301.008321
300.626573
301.16941
300.837264
301.035498
301.119129
301.186984
300.911573
300.997714
300.782858
300.943191
300.85457
300.957529
300.924287
300.996313
300.928162
300.983832
301.015196
300.929553
300.99048
300.947908
301.043091
300.866405
301.070341
300.83666
301.036727
300.937931
300.934055
301.722753
300.772896
303.204589
300.543615
300.034597
301.864358
301.780439
301.528695
301.323789
301.722863
301.650289
331.748223
330.696264
330.12917
329.614758
329.121224
328.636717
328.155531
327.674228
327.190273
326.701432
326.205741
325.701166
325.185932
324.657931
324.115415
323.555946
322.97765
322.377459
321.753255
321.101007
320.418298
319.699743
318.942669
318.139842
317.288525
316.378998
315.409016
314.365638
313.248622
312.041267
310.74935
309.353125
307.875581
306.300217
304.703879
303.103481
301.730324
300.705719
300.341077
300.809991
300.334033
301.010598
300.105058
300.707601
300.254181
300.632127
300.01662
300.875
300.311499
301.079015
300.374822
301.035945
300.36754
301.029365
300.390289
301.079494
300.420144
300.952721
300.443715
301.033895
300.509221
300.996784
300.546994
300.949965
300.592452
300.788003
300.695237
300.550963
300.735485
300.117521
300.626559
299.37258
301.271351
300.624106
299.849501
300.315048
300.410265
300.161267
300.282591
300.189818
332.084747
331.03581
330.468613
329.954146
329.461961
328.98098
328.505914
328.033222
327.560275
327.084617
326.604208
326.116999
325.621242
325.115112
324.596928
324.064899
323.517158
322.951754
322.366366
321.758724
321.125775
320.464829
319.771806
319.043549
318.274594
317.46136
316.596539
315.676348
314.691097
313.637569
312.50333
311.28802
309.977257
308.580511
307.086673
305.536084
303.940696
302.432736
301.061061
300.380433
300.274578
300.584555
300.822052
300.478137
300.652215
300.774892
300.651719
300.473611
300.666946
300.417447
300.642772
300.462593
300.642818
300.552593
300.6461
300.540727
300.605006
300.591951
300.641735
300.671601
300.647347
300.582446
300.621068
300.472986
300.585831
300.399153
300.414898
300.323572
300.264061
300.188438
300.275705
299.877598
301.101216
299.238324
300.415807
298.896515
299.616387
299.654895
299.6448
299.691842
331.587829
330.549005
329.984609
329.47306
328.985264
328.510994
328.045003
327.583649
327.123951
326.663279
326.199386
325.730163
325.253883
324.768713
324.273253
323.765663
323.244682
322.708155
322.154817
321.581867
320.98796
320.369291
319.724458
319.048216
318.339265
317.590327
316.800564
315.959796
315.068373
314.111923
313.093541
311.99284
310.819176
309.543769
308.19125
306.722551
305.201518
303.580173
302.036393
300.557893
299.966408
299.507844
299.930518
299.805986
299.789766
299.486362
299.953707
299.71844
299.848049
299.812972
299.952935
299.890311
300.032122
299.865595
300.064099
299.84666
300.097487
300.004588
300.080758
299.902021
299.994071
299.999146
300.044933
300.095418
300.082698
300.078813
300.172712
300.166619
300.294656
300.250184
300.381263
300.575488
300.399325
300.325273
300.702076
301.45708
301.412637
301.200237
301.274661
301.786579
332.058281
331.022963
330.457694
329.946167
329.460661
328.991303
328.532809
328.081057
327.632789
327.185019
326.735358
326.2816
325.821937
325.354697
324.878344
324.391514
323.892625
323.380432
322.852995
322.30905
321.745967
321.162405
320.554683
319.921407
319.257426
318.561439
317.826273
317.051025
316.225727
315.350467
314.411395
313.410833
312.329649
311.175312
309.92192
308.589678
307.14585
305.645896
304.058197
302.559303
301.16837
300.257293
300.433126
300.104455
301.03488
300.076434
300.725873
300.070195
300.645218
300.000875
300.718424
300.115169
300.713074
300.144162
300.681884
300.183
300.712335
300.180674
300.680291
300.229246
300.745049
300.221465
300.691013
300.180023
300.490807
300.078537
300.424979
299.827676
300.272659
299.690548
300.302968
299.245099
299.834784
299.376803
299.618723
298.170047
298.823556
299.243588
298.42152
298.71531
331.467508
330.430077
329.860213
329.346031
328.860638
328.394358
327.941365
327.49712
327.057822
326.620284
326.181837
325.74023
325.293577
324.840212
324.378708
323.907658
323.425833
322.931796
322.424304
321.901621
321.362319
320.804088
320.225204
319.622481
318.993871
318.334941
317.643409
316.913074
316.141694
315.320487
314.447905
313.51133
312.511414
311.429811
310.27304
309.014469
307.675768
306.219649
304.707763
303.09399
301.542637
299.901596
300.132275
299.139593
299.795684
299.793196
299.876857
299.568607
300.037498
299.568426
300.02135
299.513518
300.067807
299.530851
300.051302
299.565915
300.116784
299.640144
300.13068
299.792212
300.282563
299.834205
300.357101
299.771678
300.477916
299.858645
300.659947
299.89521
300.772039
299.932285
300.721892
299.846282
300.334053
299.706414
300.81968
301.074526
300.086597
301.029204
300.343384
300.281853
331.829492
330.759402
330.168676
329.637992
329.14061
328.666052
328.207852
327.76045
327.319745
326.881881
326.44423
326.004088
325.559789
325.109336
324.65161
324.184982
323.708557
323.220819
322.720828
322.206976
321.678032
321.132121
320.567482
319.981832
319.372642
318.737101
318.071673
317.372907
316.635992
315.856702
315.028666
314.146653
313.202525
312.190024
311.099405
309.923974
308.654411
307.285784
305.817879
304.256076
302.642386
301.033031
300.177236
299.129045
300.251094
298.7528
300.371174
298.967253
300.44082
299.024747
300.387789
299.016879
300.358665
299.178909
300.406239
299.23427
300.409464
299.240259
300.38859
299.235206
300.311257
299.269438
300.387209
299.296691
300.305535
299.2505
300.185346
299.375204
300.135092
299.116478
299.831991
299.806673
299.615114
300.915537
299.398768
300.909684
300.506744
301.073056
300.602773
300.105479
331.065992
329.977844
329.373291
328.833344
328.331121
327.855162
327.398133
326.953487
326.516895
326.083771
325.651801
325.217469
324.779921
324.335992
323.885994
323.426503
322.95894
322.479007
321.989385
321.48419
320.967739
320.431646
319.88255
319.308296
318.719013
318.096946
317.457629
316.774932
316.072928
315.312728
314.53211
313.672267
312.793493
311.804967
310.805378
309.650469
308.508187
307.140014
305.85051
304.218423
302.865719
300.945907
300.212325
298.091023
299.552653
298.071709
299.435423
297.977315
299.292684
297.966815
299.36111
298.084585
299.385275
298.064426
299.430896
298.087176
299.505297
298.308024
299.680457
298.327523
299.77279
298.373172
299.781641
298.530356
300.070996
298.647849
300.264188
298.935907
300.189687
299.393985
299.525
299.551384
299.135021
299.136638
299.104732
299.192397
298.608723
298.889041
299.369254
299.097592
331.840232
330.731983
330.11272
329.563717
329.057577
328.581208
328.126293
327.685244
327.253441
326.82579
326.399965
325.972206
325.541677
325.105175
324.662918
324.2117
323.752599
323.281919
322.801577
322.306871
321.800687
321.276689
320.73906
320.178999
319.602601
318.997429
318.372584
317.710251
317.024383
316.289057
315.526157
314.697208
313.837418
312.888194
311.907814
310.80426
309.677976
308.378439
307.090305
305.551205
304.142488
302.346529
301.202185
298.595598
300.415156
297.592425
300.793017
297.744286
300.800924
297.95416
300.787746
297.979708
300.697327
298.08315
300.633254
298.283873
300.464716
298.145975
300.247028
298.29178
300.138277
298.512791
299.938459
298.642742
299.699426
298.805549
299.425627
298.894457
299.077584
299.587169
298.802959
299.721823
298.604992
301.37869
299.196073
301.406255
301.292789
300.346633
300.704409
300.802749
331.041586
329.901495
329.260935
328.698542
328.185186
327.705546
327.249994
326.809833
326.38018
325.955327
325.533154
325.109346
324.683576
324.251956
323.815537
323.370162
322.91816
322.454473
321.982849
321.496624
321.001319
320.487776
319.963931
319.416929
318.858169
318.269402
317.667183
317.0254
316.368446
315.658579
314.932193
314.134227
313.320599
312.408561
311.485621
310.425739
309.3698
308.119421
306.913887
305.421701
304.093456
302.287353
301.074872
298.180709
300.184459
296.676542
299.84666
296.59433
299.680784
296.563267
299.701597
296.738019
299.703784
296.873173
299.632287
297.007433
299.648555
297.480632
299.636956
297.837063
299.454368
298.215374
299.432448
298.664642
299.198665
299.216309
299.078159
299.747223
298.881473
300.207205
298.828151
300.417
298.931435
299.106929
299.664619
298.366354
298.822927
298.954378
298.871719
298.913765
331.620622
330.436471
329.767902
329.187303
328.662573
328.175834
327.715532
327.272391
326.840433
326.414372
325.990864
325.566827
325.140073
324.708974
324.271587
323.827526
323.37434
322.913016
322.43979
321.957461
321.459924
320.952606
320.425627
319.888394
319.325168
318.751534
318.142738
317.524116
316.856976
316.182236
315.439395
314.694603
313.852506
313.020924
312.047059
311.110097
309.959921
308.901446
307.51356
306.333861
304.622895
303.374427
301.211595
299.960811
299.403543
296.85136
300.125217
296.869784
300.40686
297.115401
300.2521
297.191068
300.028063
297.289752
299.911228
297.703639
299.580741
297.796336
299.249417
298.234872
299.004518
298.613175
298.606557
299.057596
298.24064
299.472771
297.923488
299.873087
297.852538
299.620805
298.464771
299.773105
299.117962
299.627811
299.3065
300.766033
299.941271
300.118843
300.193885
299.979116
331.146106
329.947399
329.266413
328.682954
328.161043
327.680387
327.227524
326.79294
326.369805
325.953191
325.53911
325.125011
324.708092
324.287327
323.860153
323.426815
322.984251
322.534076
322.071959
321.601288
321.115495
320.620493
320.106147
319.582148
319.032863
318.473786
317.880909
317.278779
316.630587
315.975177
315.255885
314.534459
313.722759
312.919973
311.986649
311.085097
309.989054
308.972434
307.653932
306.51983
304.887231
303.69941
301.595036
300.809348
298.789926
297.725734
298.641134
297.528694
298.5106
297.62412
298.300391
297.720621
298.304735
297.890225
298.267512
297.786846
298.282708
298.086347
298.364279
298.24661
298.432683
298.462805
298.47908
298.721865
298.595283
299.072952
298.734177
299.415324
298.827311
299.45454
298.450131
299.355334
298.8477
299.329494
299.803571
298.680229
298.934684
299.653966
299.864264
299.858812
332.046298
330.829464
330.134899
329.548747
329.030029
328.555566
328.110116
327.683909
327.269343
326.861899
326.456871
326.052447
325.6449
325.234284
324.81675
324.394073
323.961384
323.522452
323.070397
322.611636
322.136006
321.653683
321.149457
320.639009
320.09955
319.554999
318.971239
318.38472
317.744314
317.105789
316.392132
315.689314
314.880186
314.098748
313.164078
312.288684
311.187112
310.205112
308.878136
307.792217
306.150987
305.03828
302.925906
302.299802
299.065294
299.610481
298.497282
299.067328
298.430315
298.963073
298.552305
298.972363
298.724181
298.834111
298.841029
298.999371
298.897921
299.134804
298.793789
299.097891
298.778667
299.060302
298.775281
299.037144
298.844767
298.859626
298.978665
298.729609
299.000674
299.179656
299.231939
299.300932
298.916558
299.034383
298.595862
299.947674
298.91036
298.93591
298.986767
298.990576
331.68312
330.443068
329.732574
329.143384
328.627865
328.159479
327.721402
327.303331
326.897388
326.498863
326.103202
325.708235
325.310797
324.910156
324.503626
324.09148
323.67094
323.243148
322.804747
322.357799
321.897843
321.428072
320.94227
320.445151
319.927881
319.397358
318.840941
318.268775
317.662752
317.037912
316.368288
315.676387
314.924758
314.147469
313.289885
312.404515
311.410029
310.390847
309.219028
308.044799
306.645991
305.328443
303.640326
302.36674
299.895362
299.813978
298.043692
299.511711
298.08265
299.472429
298.203905
299.440779
298.213924
299.470158
298.249582
299.379061
298.346732
299.128661
298.694501
299.039336
298.949947
299.037067
299.219029
298.941316
299.482895
298.848858
299.600431
298.738382
299.488371
299.072854
299.091449
299.105195
299.328696
300.460886
299.603362
298.910842
300.070098
300.352451
300.007996
300.122155
332.467506
331.226484
330.512346
329.931155
329.428268
328.973895
328.550228
328.146559
327.754971
327.370691
326.989232
326.608407
326.225096
325.838571
325.446136
325.048102
324.641607
324.227897
323.80343
323.370486
322.924266
322.468375
321.996027
321.512666
321.008525
320.491751
319.948188
319.390103
318.796874
318.187186
317.530784
316.856453
316.119319
315.364168
314.523546
313.667952
312.694009
311.715417
310.568368
309.444247
308.071113
306.79744
305.115278
303.776696
301.42448
301.162453
298.902899
300.585557
298.842068
300.646325
299.020407
300.579975
299.208188
300.649725
299.280109
300.59955
299.304045
300.542898
299.246077
300.34941
299.275808
300.428385
299.185301
300.144596
299.058144
299.916919
299.09394
299.533517
299.282798
299.138685
299.35402
299.293928
298.831273
298.578773
298.874988
299.81039
298.536527
298.988829
298.842492
298.66082
332.54811
331.312207
330.598679
330.030561
329.544754
329.108564
328.703155
328.317764
327.944356
327.578339
327.215229
326.852961
326.488502
326.121099
325.748297
325.37015
324.984299
324.591376
324.188768
323.777588
323.354639
322.921503
322.474029
322.014328
321.53684
321.044369
320.529365
319.995646
319.433005
318.846847
318.223172
317.570173
316.868167
316.130581
315.327855
314.48425
313.552373
312.579176
311.480673
310.355553
309.041024
307.754317
306.153406
304.75544
302.694843
302.084304
299.509123
301.689896
299.181895
301.686992
299.035509
301.730448
299.131537
301.519892
299.268131
301.352603
299.573469
301.303852
299.720158
301.293071
299.928687
300.946151
300.141143
300.641061
300.330773
300.285566
300.301153
300.043708
300.251832
299.71111
300.423537
300.029362
301.113728
300.714756
299.264584
299.835172
300.596777
300.340721
299.985756
300.061118
333.090959
331.815136
331.07913
330.50568
330.020744
329.587774
329.18672
328.806283
328.438291
328.078005
327.720987
327.365092
327.007392
326.64706
326.281782
325.91152
325.534109
325.150044
324.756983
324.355827
323.943771
323.522045
323.087086
322.640405
322.177349
321.699683
321.201296
320.684223
320.140509
319.572531
318.970115
318.33613
317.657733
316.93842
316.162581
315.334297
314.434344
313.468328
312.411399
311.275297
310.020903
308.686296
307.182189
305.671537
303.854564
302.994774
299.933139
302.573923
299.824589
302.402684
299.876804
302.256947
299.912979
302.143761
299.909381
302.035249
300.063465
301.894427
300.28147
301.729435
300.224829
301.366365
300.327373
301.23771
300.328945
301.003623
300.536043
300.906029
300.745485
300.35579
301.11499
300.394318
300.058633
299.405171
300.448025
300.910505
299.689489
300.186455
299.564138
299.158985
332.861145
331.558279
330.807017
330.235148
329.756923
329.332373
328.940408
328.569418
328.211159
327.860844
327.514148
327.168835
326.822229
326.473262
326.120079
325.762161
325.398113
325.027585
324.649483
324.263309
323.868227
323.463243
323.047821
322.620028
322.179779
321.72359
321.252147
320.759559
320.247915
319.707668
319.143494
318.540264
317.907348
317.220763
316.498636
315.702434
314.865751
313.926254
312.945377
311.820245
310.664349
309.301672
307.956293
306.307761
304.864814
303.206077
300.769031
302.270436
299.935872
302.069878
299.969995
302.110299
300.034474
302.222945
300.09376
302.083781
300.199487
301.895632
300.573039
301.925471
300.741625
301.751571
300.898642
301.507
301.202868
301.182964
301.454408
300.944561
301.485878
300.763233
300.981685
300.507473
300.957182
300.551838
300.007644
300.334013
301.214106
300.874735
300.841458
300.303351
333.004146
331.656271
330.880387
330.302731
329.82433
329.401431
329.011995
328.643815
328.288684
327.941515
327.598198
327.256216
326.913178
326.567711
326.218303
325.864092
325.504081
325.137542
324.763834
324.382065
323.991883
323.591932
323.182138
322.760334
322.32675
321.877977
321.414632
320.931523
320.429865
319.901967
319.350152
318.763082
318.145469
317.479955
316.776938
316.007319
315.195865
314.287556
313.343285
312.248857
311.151421
309.809011
308.554596
306.910515
305.56895
303.717895
301.696637
302.609473
300.415296
302.767471
300.59324
302.484741
300.683148
302.46227
300.867815
302.549643
300.798662
302.340563
300.746336
302.133326
300.89318
302.064367
300.84044
301.925162
300.798033
301.686072
300.935086
301.237524
301.105717
301.078222
301.175493
300.129396
301.420557
299.759475
301.495451
300.990127
300.302939
300.745583
301.178428
300.427305
333.095715
331.72617
330.938472
330.365789
329.896142
329.482835
329.103197
328.74471
328.399351
328.061776
327.7283
327.39592
327.062965
326.727191
326.38826
326.043854
325.694859
325.338216
324.976239
324.6044
324.226915
323.836853
323.441106
323.029054
322.611442
322.172135
321.727372
321.253299
320.773818
320.254187
319.729568
319.148661
318.563844
317.900838
317.236023
316.464311
315.692925
314.77921
313.868317
312.773665
311.68927
310.363363
309.105246
307.467044
306.182328
304.03101
302.513941
302.209574
300.85599
302.531261
300.85103
302.552422
300.906533
302.607479
300.980832
302.389777
301.084154
302.347748
301.086435
302.090296
301.258999
301.911531
301.350894
301.607616
301.496287
301.144988
301.240528
300.561565
300.850881
300.489263
300.303535
299.639768
299.960459
299.821056
299.441334
299.599141
300.986965
299.784951
301.146572
300.677762
333.281638
331.920711
331.136766
330.58107
330.129921
329.734488
329.372016
329.029906
328.70046
328.378281
328.059964
327.742394
327.424111
327.102738
326.778076
326.447696
326.112524
325.769476
325.420755
325.061994
324.697042
324.319475
323.935399
323.535293
323.128425
322.70075
322.266043
321.803698
321.334067
320.826958
320.312683
319.746608
319.174931
318.530073
317.885083
317.133716
316.397752
315.500336
314.657117
313.558855
312.600723
311.237066
310.166951
308.479787
307.334078
305.15879
303.969608
303.463715
301.990694
303.375964
302.122476
303.360392
302.022385
303.056911
301.974741
303.037825
301.969989
303.027095
301.83803
302.756718
301.578307
302.542542
301.317111
302.142813
301.081164
301.877165
300.688589
301.493008
300.503803
301.177807
300.513136
300.35189
300.90809
299.870607
301.238926
299.90425
300.15719
300.073049
300.874816
300.887486
333.650973
332.309779
331.535833
331.002083
330.573528
330.199911
329.858328
329.536522
329.226858
328.924349
328.625465
328.327575
328.028856
327.727586
327.422891
327.113299
326.798629
326.477223
326.14957
325.813386
325.469982
325.115981
324.753775
324.37823
323.993309
323.591199
323.178235
322.742469
322.294048
321.814711
321.320801
320.784281
320.231712
319.619852
318.991468
318.279635
317.553906
316.708189
315.85933
314.833309
313.833601
312.56078
311.394482
309.780794
308.472644
306.312112
305.021371
304.042455
302.827701
304.047498
302.770893
303.979116
302.79015
303.845727
302.753448
303.673923
302.67124
303.32759
302.446687
303.140583
302.314194
302.700604
302.238545
302.392734
301.920529
301.882372
301.345262
301.494303
300.774852
300.729108
300.126352
300.351014
299.18753
299.801768
299.635343
299.317337
301.053858
299.301705
299.847889
300.280284
333.734311
332.424563
331.665261
331.15569
330.751083
330.40008
330.079961
329.778703
329.488993
329.206016
328.926442
328.647744
328.368198
328.086169
327.80079
327.510708
327.215648
326.914146
326.606469
326.290682
325.96769
325.634649
325.293349
324.939424
324.575996
324.19627
323.805487
323.393019
322.967615
322.512599
322.042667
321.531503
321.003969
320.418174
319.816259
319.130938
318.433484
317.614971
316.79595
315.798997
314.829144
313.592046
312.451189
310.881526
309.604293
307.506997
306.455139
304.936826
304.096388
304.662114
303.89082
304.666252
303.822357
304.465399
303.688281
304.271337
303.538442
304.168451
303.295794
303.8388
302.856309
303.575952
302.473478
303.088734
301.789639
302.615705
301.314246
302.156335
300.755414
300.992778
300.57321
300.624368
301.680588
300.194222
301.881704
299.534969
300.731327
300.949423
300.263806
300.589917
334.426378
333.18414
332.455447
331.981096
331.609318
331.288669
330.99694
330.722661
330.458895
330.201188
329.946356
329.692136
329.436772
329.178891
328.917424
328.651358
328.380019
328.102449
327.818255
327.526281
327.226408
326.917001
326.598284
326.267755
325.926133
325.569518
325.199609
324.810133
324.404444
323.972533
323.52079
323.033208
322.52172
321.960501
321.371379
320.712386
320.022634
319.233519
318.41412
317.451766
316.468606
315.27517
314.098524
312.589212
311.231674
309.226904
307.977941
306.220837
305.569118
305.583559
305.247325
305.463752
305.050107
305.247735
304.768941
304.963123
304.326337
304.561771
303.915518
304.155881
303.387205
303.431242
302.721991
302.645005
301.873143
301.803945
301.104116
301.027793
300.412268
300.234162
300.042984
299.732333
299.356812
298.868371
300.161298
299.203151
300.566504
299.718346
299.99267
300.223262
334.56827
333.452377
332.777903
332.354423
332.028677
331.750171
331.497762
331.260814
331.033006
330.810373
330.589999
330.369959
330.148514
329.924626
329.696998
329.465073
329.227641
328.98447
328.734189
328.476854
328.210685
327.936073
327.650512
327.354879
327.045473
326.72396
326.384725
326.030807
325.653556
325.25847
324.832109
324.384295
323.894058
323.378464
322.804842
322.201686
321.518702
320.801483
319.974439
319.107518
318.090949
317.027383
315.768228
314.446379
312.913914
311.226785
309.697585
307.846725
307.042076
306.722876
306.637161
306.516171
306.18204
306.314195
305.789755
305.932623
305.135278
305.465792
304.558118
304.836577
303.754326
304.265602
302.784728
303.562422
301.819914
302.540351
300.942021
301.597924
300.217226
300.408203
300.35784
299.75701
301.538344
299.627869
301.663238
299.330295
299.709935
300.65569
300.370665
300.523552
335.384245
334.432081
333.821364
333.450099
333.170892
332.934648
332.721638
332.52181
332.329952
332.142006
331.956183
331.76984
331.582707
331.392301
331.19945
331.001173
330.799435
330.590181
330.376781
330.15346
329.925445
329.684413
329.438124
329.174691
328.905357
328.61337
328.314693
327.985895
327.649419
327.272938
326.887479
326.44943
326.000253
325.483706
324.95107
324.336292
323.692548
322.958155
322.163404
321.287216
320.284768
319.239422
317.959766
316.691281
315.081452
313.464076
311.624397
310.040634
308.778863
308.316216
307.961312
307.848956
307.464469
307.404366
306.702768
306.862945
305.981149
306.133698
304.928971
305.198708
304.266608
304.12131
303.213822
302.992963
302.304779
301.853397
301.407537
300.62835
300.592019
299.744626
300.309076
299.328204
299.493581
298.673468
300.30402
299.897917
300.198547
299.471061
299.891777
300.261283
335.743264
335.221411
334.77382
334.499151
334.300973
334.13563
333.984739
333.839789
333.696176
333.552065
333.40539
333.255744
333.101302
332.942464
332.777134
332.606532
332.427976
332.243751
332.050375
331.851654
331.643264
331.431154
331.209812
330.985921
330.749868
330.508098
330.248259
329.977944
329.682488
329.369795
329.024131
328.651262
328.238907
327.783435
327.286593
326.71864
326.118584
325.397545
324.675229
323.74783
322.880257
321.686091
320.626322
319.126265
317.754363
315.973218
314.049915
311.984971
310.467351
309.773307
309.033417
309.018806
308.3777
308.265116
307.528314
307.524407
306.632906
306.640541
305.520969
305.482454
304.461864
304.359533
303.363789
303.213664
302.276102
302.028432
301.321308
301.03202
300.756466
300.39772
300.518642
299.869713
301.498441
300.064536
301.497222
299.152539
299.933489
300.779962
300.132249
300.274045
336.212215
335.568965
335.066324
334.767966
334.556124
334.383283
334.230355
334.088665
333.953199
333.821295
333.690648
333.560257
333.428511
333.295163
333.158667
333.019299
332.875243
332.727293
332.573088
332.414046
332.24695
332.074054
331.890834
331.700671
331.49703
331.284859
331.054566
330.813465
330.547289
330.267088
329.951477
329.617788
329.233854
328.827537
328.350457
327.847198
327.245971
326.61495
325.852483
325.053551
324.087394
323.066266
321.849532
320.532032
319.006606
317.303856
315.372475
313.283429
311.292138
310.593296
309.505514
309.738482
308.702294
309.013156
307.792305
307.926378
306.76482
306.779128
305.417409
305.426348
304.315449
304.06352
303.159468
302.544717
302.114397
301.251155
301.056637
299.783654
300.383497
299.317579
299.857187
299.291712
299.576152
298.716421
300.054564
300.03831
300.158661
299.67899
300.107224
300.37998
335.918858
335.155985
334.590789
334.257339
334.019823
333.826096
333.655529
333.498241
333.349164
333.204821
333.063478
332.923184
332.78347
332.642716
332.501222
332.357175
332.21156
332.061987
331.910214
331.752896
331.59276
331.425073
331.253804
331.072317
330.886146
330.686113
330.479629
330.254177
330.019251
329.758181
329.482455
329.170787
328.835998
328.452967
328.033508
327.552263
327.01363
326.401195
325.697932
324.914889
323.989158
322.987732
321.770204
320.48767
318.907631
317.248505
315.270165
313.127059
311.387784
310.011884
309.876548
308.86078
308.97159
308.145718
307.899911
307.352856
306.786295
306.325667
305.525258
304.934295
304.095519
303.582875
302.909209
302.208738
301.885145
301.135465
300.956167
300.216618
300.21287
300.111727
300.233619
299.863758
301.119327
299.945509
300.791012
298.944647
299.63549
300.518902
300.130058
300.130021
336.016694
335.070574
334.415913
334.031013
333.753799
333.526334
333.3256
333.140546
332.965351
332.796126
332.63081
332.467308
332.305014
332.14228
331.979392
331.814551
331.648827
331.479833
331.309524
331.134488
330.957786
330.774472
330.589056
330.394418
330.196977
329.98662
329.772253
329.539734
329.301078
329.036655
328.76232
328.451067
328.123545
327.74345
327.33729
326.858386
326.338789
325.723206
325.04423
324.246943
323.349778
322.319672
321.132327
319.811663
318.256638
316.588617
314.633447
312.720972
310.744764
309.915068
308.939647
308.877518
307.82559
307.913512
306.895305
306.915114
305.764241
305.771291
304.57278
304.45911
303.28923
302.936952
302.203129
301.510322
301.288801
300.357539
300.48196
299.434605
300.18955
299.221034
300.145277
299.200808
299.677669
298.989001
299.964432
300.4605
300.228662
299.621528
300.168896
300.4567
335.509659
334.275685
333.495645
333.036187
332.699882
332.421573
332.175241
331.948253
331.733702
331.527168
331.325995
331.128042
330.93222
330.73719
330.542675
330.347538
330.152053
329.954927
329.756914
329.556247
329.354201
329.148205
328.940169
328.726334
328.509411
328.283973
328.053729
327.810924
327.560496
327.291423
327.010051
326.700729
326.371437
326.000141
325.59728
325.132379
324.620258
324.018987
323.351516
322.55884
321.680912
320.628395
319.483041
318.087183
316.639091
314.80226
313.125207
310.818168
309.615958
307.896415
307.997758
306.933136
306.947231
306.0172
306.038854
305.213308
304.855145
304.131931
303.763659
303.075524
302.540228
301.861577
301.702517
300.856198
300.913262
300.054892
300.397477
299.665574
300.156213
299.553164
299.949381
299.28707
300.331372
300.129419
300.180564
298.811275
299.899307
300.502391
300.083018
300.012077
334.980525
333.321332
332.352809
331.773791
331.342207
330.982153
330.662656
330.368589
330.091215
329.825364
329.567397
329.315199
329.066942
328.821834
328.578782
328.337673
328.09763
327.858912
327.620505
327.382865
327.144556
326.906143
326.665504
326.423296
326.176463
325.925781
325.666987
325.401029
325.122081
324.831234
324.520505
324.190791
323.830987
323.441124
323.006209
322.524852