/*--------------------------------*- C++ -*----------------------------------*\
| =========                 |                                                 |
| \\      /  F ield         | OpenFOAM: The Open Source CFD Toolbox           |
|  \\    /   O peration     | Version:  v2006                                 |
|   \\  /    A nd           | Website:  www.openfoam.com                      |
|    \\/     M anipulation  |                                                 |
\*---------------------------------------------------------------------------*/
FoamFile
{
    version     2.0;
    format      ascii;
    class       volVectorField;
    location    "0.0534000002";
    object      U;
}
// * * * * * * * * * * * * * * * * * * * * * * * * * * * * * * * * * * * * * //

dimensions      [0 1 -1 0 0 0 0];


internalField   nonuniform List<vector> 
14400
(
(110.557859 8.13910647e-05 -0.0100078623)
(136.51972 -0.000683842602 0.0775136264)
(148.477921 -0.000453008718 0.0509829967)
(158.182766 -0.0012028236 0.136837574)
(166.696666 -0.000968008322 0.109870948)
(174.453015 -0.0017227579 0.196301547)
(181.683081 -0.00149945602 0.170661625)
(188.527551 -0.00227265408 0.259212525)
(195.081678 -0.0020721145 0.236186583)
(201.412703 -0.00287458962 0.328096071)
(207.571599 -0.00270552529 0.30868087)
(213.595981 -0.00354619102 0.40497087)
(219.514662 -0.00341477332 0.389878645)
(225.348361 -0.00430044348 0.491334889)
(231.114126 -0.00420961344 0.480915606)
(236.826533 -0.00514417152 0.587997841)
(242.495881 -0.00509221195 0.582067022)
(248.120952 -0.00607503112 0.694716475)
(253.691094 -0.00605321984 0.692289947)
(259.18417 -0.00707692392 0.809673451)
(264.569655 -0.00706657243 0.80864116)
(269.801497 -0.00811402015 0.928836756)
(274.822813 -0.00808291939 0.925566328)
(279.503478 -0.00912507635 1.04527314)
(284.611479 -0.00901575281 1.03328067)
(292.383563 -0.00994956455 1.13999118)
(299.979606 -0.00955725399 1.09481537)
(302.620703 -0.0102907266 1.17884294)
(304.964823 -0.00969433237 1.11034044)
(302.795625 -0.0102632116 1.17551002)
(301.348441 -0.00951420621 1.08957813)
(296.286027 -0.00998796537 1.14383365)
(293.49204 -0.00919399531 1.05207795)
(288.693231 -0.00967811862 1.10713578)
(287.614456 -0.00893636334 1.0219456)
(289.253956 -0.00960642733 1.09904459)
(293.449094 -0.00902209133 1.03256494)
(292.177904 -0.00961499903 1.10031359)
(291.420066 -0.00885496808 1.01275049)
(291.178398 -0.0094535332 1.08206764)
(292.065145 -0.00875048852 1.00140799)
(290.977705 -0.00926856757 1.06136454)
(292.190602 -0.00860624562 0.985320484)
(290.956248 -0.00905540365 1.0356348)
(292.348775 -0.00840029133 0.961713783)
(290.916291 -0.00875824742 1.00068382)
(292.338124 -0.0080908617 0.924033227)
(290.923494 -0.00832045745 0.950441679)
(292.200407 -0.00756041894 0.865463423)
(290.72871 -0.00787545352 0.902452266)
(291.89065 -0.00714170296 0.818534722)
(290.673686 -0.00754468811 0.864601174)
(291.848123 -0.00680345245 0.779594506)
(290.844224 -0.00715037555 0.819321266)
(291.934811 -0.00648778011 0.743416895)
(290.96492 -0.00662826511 0.759521742)
(291.857469 -0.00606700347 0.695206248)
(291.051362 -0.00601135965 0.68884377)
(291.586477 -0.00530806674 0.608254116)
(290.997009 -0.00565975787 0.648544327)
(291.746532 -0.00450274623 0.515963698)
(291.104917 -0.00593541202 0.680130104)
(291.521156 -0.00428929763 0.491502987)
(290.971014 -0.00656063134 0.751773289)
(291.30411 -0.00408688552 0.468310821)
(290.835 -0.00464179428 0.531897844)
(291.121537 -0.00247438722 0.283531692)
(290.630412 -0.00203323214 0.232986034)
(290.927861 0.00122014346 -0.13980763)
(290.664253 0.00250177456 -0.286674957)
(290.937968 0.00512941011 -0.58777672)
(291.741736 0.00351220553 -0.402465143)
(291.246937 0.0134442688 -1.54055939)
(291.132873 0.00558517894 -0.640001995)
(292.441632 0.0015899911 -0.182197994)
(291.320968 -0.000433971302 0.0497267775)
(291.007721 0.0014683319 -0.168254736)
(291.259736 0.00241613208 -0.276861457)
(291.596412 0.00020359398 -0.0233289958)
(291.056087 -0.00126937135 0.145455853)
(102.760318 0.00024673101 -0.028167367)
(118.212705 -0.000264555771 0.0304361187)
(125.748105 0.000209736614 -0.0239056222)
(132.230966 -0.000310457742 0.0357088103)
(138.21356 0.000155430162 -0.0176706661)
(143.906841 -0.000373018597 0.0428895198)
(149.413338 8.28292215e-05 -0.00933883227)
(154.789295 -0.00045578231 0.0523867253)
(160.072613 -1.35337669e-05 0.00171667072)
(165.292838 -0.000565553001 0.0649784392)
(170.477381 -0.000142161082 0.0164700789)
(175.651507 -0.000712053024 0.0817809445)
(180.837697 -0.000314750112 0.0362658307)
(186.055544 -0.000908316461 0.104296834)
(191.322398 -0.000546772366 0.0628884142)
(196.657404 -0.00117141386 0.134492524)
(202.080209 -0.000858366842 0.0986555243)
(207.613219 -0.00152327902 0.174890855)
(213.273164 -0.0012751631 0.146510232)
(219.080716 -0.00199108341 0.228610581)
(225.047481 -0.00182787907 0.209983101)
(231.192714 -0.00260553746 0.299192906)
(237.519393 -0.0025494115 0.292864005)
(244.043937 -0.0033960269 0.39000253)
(250.757048 -0.00346604964 0.398128451)
(257.66184 -0.00439365189 0.504524326)
(264.636041 -0.00469917681 0.539602586)
(271.517064 -0.00581167224 0.66714293)
(278.106612 -0.00627103515 0.719829428)
(284.171653 -0.00741731908 0.851212879)
(289.455703 -0.00783394736 0.89896686)
(293.679395 -0.00877443846 1.00680133)
(296.687227 -0.00888318868 1.01961761)
(298.07951 -0.00935140198 1.07355785)
(295.987671 -0.00899212278 1.03290127)
(290.013645 -0.00905255281 1.03883205)
(288.599148 -0.00877651514 1.00718681)
(291.185612 -0.00898476826 1.03180929)
(292.668754 -0.00892878259 1.02572662)
(290.887192 -0.00887242632 1.01779972)
(291.766481 -0.00897988775 1.03009544)
(291.247175 -0.00877474087 1.00585078)
(291.574809 -0.00905315717 1.0383822)
(291.45254 -0.00867601735 0.995081397)
(291.492885 -0.00925396069 1.05912276)
(291.871558 -0.00864153666 0.992759108)
(291.663812 -0.00956074319 1.09752206)
(292.25721 -0.00875429476 1.00565635)
(291.411961 -0.0100635779 1.1541357)
(291.941816 -0.00858024487 0.983327067)
(291.279718 -0.0102844594 1.17830951)
(291.715884 -0.00803110097 0.920187358)
(291.276744 -0.0103846955 1.18996487)
(291.422521 -0.00754426092 0.864514456)
(291.144252 -0.0105609501 1.21016775)
(291.208845 -0.00736878861 0.844366145)
(290.917259 -0.0107297332 1.22949987)
(291.002694 -0.00742458929 0.850759058)
(290.744936 -0.0111930582 1.28258281)
(290.940378 -0.00724729037 0.830459295)
(290.071987 -0.0113615551 1.30190843)
(290.556983 -0.0072513153 0.830921344)
(289.949861 -0.010988134 1.25911639)
(290.441931 -0.00719473512 0.824435921)
(289.65459 -0.0103704685 1.18833811)
(290.172689 -0.00721582568 0.826849476)
(289.194333 -0.0088267921 1.01145972)
(289.852375 -0.00836956767 0.959066598)
(288.96077 -0.00668455517 0.765970082)
(289.597899 -0.00915174312 1.04868645)
(289.274496 -0.00694707567 0.7960628)
(290.451374 -0.00869696964 0.996573737)
(290.63015 -0.0275708127 3.15930229)
(287.810529 0.00170026622 -0.194818571)
(288.928883 -0.00271216648 0.310790266)
(290.560073 -0.011927231 1.36673012)
(290.095906 -0.00586761702 0.672362683)
(289.687147 -0.00977848622 1.12050354)
(290.11979 -0.00764826087 0.87640323)
(290.593339 -0.00202754756 0.232333379)
(97.0315311 -0.000384265531 0.0430913815)
(111.640987 0.000350043424 -0.0411959087)
(118.757564 -0.000403706225 0.0451076885)
(124.85837 0.000330128663 -0.0390389421)
(130.452143 -0.000424700311 0.0474040089)
(135.739381 0.000307040948 -0.0364938249)
(140.818361 -0.000449726083 0.0501772267)
(145.74824 0.00027832869 -0.0332918346)
(150.567706 -0.000481440075 0.0537283513)
(155.308498 0.000240720536 -0.0290621141)
(159.995091 -0.000523449703 0.0584659483)
(164.651304 0.000189786663 -0.0232955981)
(169.296394 -0.000580673917 0.0649583015)
(173.950969 0.000119231946 -0.0152719826)
(178.632014 -0.000660216792 0.0740173112)
(183.358967 2.00924353e-05 -0.00396050529)
(188.148134 -0.00077227748 0.086809404)
(193.018872 -0.000120652019 0.0121219399)
(197.98756 -0.000931710284 0.105033781)
(203.073736 -0.00032199596 0.035143767)
(208.293813 -0.00116030069 0.131183025)
(213.66689 -0.000611238386 0.0682540419)
(219.208371 -0.0014894111 0.168885084)
(224.934706 -0.00102757988 0.115990102)
(230.857023 -0.00196397184 0.22335107)
(236.983159 -0.00162680615 0.184782978)
(243.310867 -0.00264807835 0.301916358)
(249.824785 -0.00248387621 0.283206502)
(256.491732 -0.00361538814 0.413023295)
(263.2487 -0.00366527377 0.418864457)
(270.001897 -0.00490572722 0.561161073)
(276.59746 -0.00516839511 0.591422141)
(282.825668 -0.00644079918 0.73742431)
(288.309946 -0.00682303457 0.781444322)
(292.379422 -0.0079272811 0.908224667)
(293.920955 -0.00808935719 0.926881666)
(293.361239 -0.00825829544 0.945922901)
(290.914808 -0.0080571561 0.922996549)
(291.911264 -0.00812592487 0.930506544)
(291.709155 -0.00816762487 0.936835303)
(292.039627 -0.00793417572 0.910223721)
(291.320662 -0.00825796683 0.947403425)
(291.93476 -0.00770468234 0.883684363)
(290.799212 -0.00831231746 0.953995037)
(291.618502 -0.00738947531 0.847715206)
(290.32863 -0.00838940429 0.960356651)
(291.163087 -0.00706570592 0.809790042)
(290.135849 -0.00851066461 0.976176402)
(292.005867 -0.00699884728 0.80324615)
(290.895197 -0.0088974078 1.02040917)
(292.376749 -0.00703833748 0.806981804)
(291.039023 -0.0092880157 1.06444726)
(292.08615 -0.00690896145 0.791756561)
(290.936247 -0.00966656009 1.10771827)
(291.702659 -0.00653859838 0.749254559)
(290.78211 -0.00998750388 1.14444942)
(291.500323 -0.00615283924 0.705059687)
(290.582899 -0.0104673289 1.19943575)
(291.342917 -0.00498841136 0.571613347)
(290.62425 -0.0111066363 1.27268918)
(291.290738 -0.00431081212 0.493968226)
(290.585382 -0.0105135096 1.20472947)
(290.826714 -0.00379470065 0.434832429)
(290.327421 -0.0093762563 1.07441175)
(290.344094 -0.00322985472 0.370104481)
(290.093563 -0.00571397025 0.654754757)
(290.116986 -0.00258178569 0.295848034)
(289.953814 -0.000835048064 0.0956836835)
(289.90991 -0.00221318714 0.253599551)
(289.707418 0.00432992451 -0.496165702)
(289.503063 -0.00217337857 0.249042653)
(287.277299 0.00524429416 -0.600933501)
(289.714475 -0.00674988031 0.773456751)
(291.687294 -0.0194300325 2.22645671)
(288.214784 0.00880154252 -1.00856042)
(288.574359 0.00375321444 -0.43007977)
(288.853907 -0.00806311922 0.923942353)
(289.439428 -0.000809826039 0.0927969911)
(288.404077 -0.00840785308 0.963445198)
(289.019142 -0.00888658187 1.01830214)
(91.1262369 0.000230860533 -0.0275016331)
(106.046077 -0.000265408652 0.029195191)
(113.275044 0.000214830181 -0.0259184717)
(119.452934 -0.000280532025 0.0307727382)
(125.092289 0.000199435544 -0.0242919528)
(130.389763 -0.000296167679 0.0324366486)
(135.444764 0.000182473278 -0.0224692402)
(140.317001 -0.000313905287 0.0343524228)
(145.049872 0.000162124585 -0.0202506839)
(149.676234 -0.000335556355 0.0367239704)
(154.224288 0.00013617166 -0.0173828975)
(158.716818 -0.000363413042 0.0398124701)
(163.174836 0.00010163962 -0.0135274602)
(167.615898 -0.00040061993 0.0439747222)
(172.057279 5.43447586e-05 -0.00820854342)
(176.514178 -0.00045164415 0.0497236393)
(181.002399 -1.1690714e-05 -0.000733717315)
(185.536771 -0.000523054839 0.0578204013)
(190.13299 -0.000105409721 0.00992531366)
(194.806708 -0.000624849299 0.0694133413)
(199.574016 -0.000240161546 0.0253100662)
(204.451895 -0.000772040451 0.086245068)
(209.456463 -0.000435895283 0.0477345031)
(214.605879 -0.000987419813 0.110952247)
(219.914799 -0.000722482919 0.0806471592)
(225.401384 -0.00130534908 0.147472986)
(231.075094 -0.00114449087 0.129106527)
(236.950281 -0.00177550958 0.201511521)
(243.022584 -0.00176280105 0.20019314)
(249.292915 -0.00246376197 0.28074066)
(255.723206 -0.00265465984 0.302819205)
(262.2774 -0.00344596869 0.393814319)
(268.836553 -0.00389503217 0.445461925)
(275.267074 -0.00476978678 0.545923491)
(281.245653 -0.0054836924 0.627813928)
(286.406999 -0.00630332124 0.721734894)
(290.139234 -0.00701756171 0.803382031)
(292.071401 -0.00728875744 0.834249005)
(292.111192 -0.00745510827 0.853430096)
(291.643167 -0.00726152417 0.830115217)
(291.716145 -0.00738382804 0.845670366)
(292.107783 -0.00717193292 0.820560156)
(291.875243 -0.00740476961 0.847337906)
(292.439399 -0.00702885341 0.805084547)
(291.795244 -0.00733892179 0.843301767)
(292.563718 -0.00674683064 0.775081954)
(291.628245 -0.00722734537 0.828203353)
(291.806137 -0.00625450945 0.715523046)
(290.601237 -0.00690311939 0.789651054)
(291.212617 -0.00596801632 0.682983447)
(290.569889 -0.00679827445 0.778569981)
(291.312034 -0.00583846576 0.668863696)
(290.531867 -0.00685426228 0.785362656)
(291.31368 -0.00558917213 0.640438718)
(290.519531 -0.00708024794 0.811310069)
(291.014644 -0.00529289681 0.606508837)
(290.428301 -0.00713840331 0.817977555)
(291.175941 -0.00502894252 0.576279391)
(290.571192 -0.0070672919 0.80984409)
(290.80074 -0.00543532475 0.622835646)
(290.443067 -0.00736333679 0.843759477)
(290.446785 -0.00599457534 0.686908652)
(290.376839 -0.00772410534 0.885093468)
(290.314689 -0.00654383765 0.749854519)
(290.228838 -0.00744831173 0.85349192)
(290.340248 -0.00657723484 0.753677133)
(289.901496 -0.00898939758 1.03008194)
(290.395229 -0.00713933686 0.818084482)
(289.573183 -0.010069071 1.15380237)
(290.562015 -0.00901137629 1.03261084)
(289.738345 -0.0103443856 1.18535195)
(291.228514 -0.00378901672 0.434183712)
(288.669061 0.00983116265 -1.12654247)
(289.48348 0.000677196468 -0.0776026231)
(290.826603 -0.0202817403 2.32406075)
(289.664597 -0.0085264609 0.977039966)
(288.199502 -0.0069245393 0.793472672)
(288.84995 -0.0133385025 1.52844072)
(287.931276 -0.0181490039 2.07967114)
(288.587501 -0.0110503486 1.26624506)
(87.4177154 -0.00054755757 0.0618853805)
(102.838656 0.000518838586 -0.0604687555)
(110.28195 -0.000560531504 0.0631410074)
(116.622475 0.000506910999 -0.0592396032)
(122.380508 -0.000572188154 0.0643544228)
(127.756398 0.000494940775 -0.0579817277)
(132.85186 -0.000584475876 0.0656534391)
(137.734247 0.000481481953 -0.0565455791)
(142.450682 -0.000598797823 0.0671890964)
(147.040881 0.000464972868 -0.0547606848)
(151.534232 -0.00061672651 0.0691351369)
(155.958018 0.000443606584 -0.0524200938)
(160.331923 -0.000640117856 0.0717095642)
(164.676202 0.000415060931 -0.0492510593)
(169.005073 -0.000671496813 0.0752078939)
(173.335283 0.000376052945 -0.044873333)
(177.678531 -0.000714576543 0.0800507958)
(182.050458 0.000321627754 -0.0387383283)
(186.462203 -0.000774919998 0.0868550925)
(190.929787 0.000244692271 -0.030037696)
(195.464909 -0.000860478552 0.0965419781)
(200.084651 0.000134869232 -0.0175655134)
(204.801672 -0.000983228595 0.110499592)
(209.634109 -2.35555392e-05 0.000486108107)
(214.595337 -0.00116139096 0.130822927)
(219.703778 -0.000253984695 0.0268224036)
(224.97237 -0.00142207126 0.160654623)
(230.417673 -0.000590884642 0.0654485651)
(236.049063 -0.00180466652 0.204619573)
(241.875686 -0.00108307608 0.122131495)
(247.895341 -0.00236622931 0.269229306)
(254.095855 -0.00180152539 0.204615855)
(260.442874 -0.00317973197 0.36266742)
(266.869504 -0.00281988785 0.321551655)
(273.259265 -0.00430293125 0.491807554)
(279.414969 -0.00416206582 0.475750572)
(285.04008 -0.00566873837 0.648772625)
(289.710427 -0.00558917893 0.639767631)
(292.84095 -0.0067530219 0.773924994)
(294.124192 -0.00631031943 0.722211248)
(293.055763 -0.00674291212 0.769821164)
(293.13839 -0.00625088972 0.714563523)
(293.140197 -0.00651026428 0.742487123)
(292.930841 -0.00632202481 0.721219446)
(293.219776 -0.00619698603 0.706316847)
(292.822575 -0.00639367235 0.731058715)
(293.493828 -0.00589336831 0.676754269)
(293.224305 -0.00644226156 0.739703203)
(293.470187 -0.00551049084 0.63199068)
(293.302408 -0.00604858496 0.693280285)
(293.506456 -0.00480671075 0.550932245)
(293.217208 -0.00565439343 0.648016898)
(293.565241 -0.00410177681 0.470012929)
(292.889783 -0.00525182596 0.601774991)
(293.471041 -0.00313065557 0.358735744)
(292.899485 -0.00490572567 0.562141652)
(293.587213 -0.00145310279 0.166493824)
(292.871091 -0.00481888988 0.552187892)
(293.175686 -0.000596277491 0.0683197813)
(292.710278 -0.00519115143 0.594845823)
(292.891625 6.0412564e-05 -0.00692512384)
(292.632279 -0.00415985188 0.476676511)
(292.651805 0.000677883036 -0.0776774138)
(292.60787 -0.00364517262 0.417694842)
(292.630955 0.00180767215 -0.207137735)
(292.327424 -0.00130648546 0.149710981)
(292.533104 0.00233892941 -0.268024392)
(292.288279 0.00258731254 -0.296479636)
(292.520703 0.0038297798 -0.438848752)
(291.941269 0.0106989715 -1.22598894)
(292.519991 0.00168928663 -0.193573121)
(291.954826 0.0105312677 -1.20676637)
(291.749002 -0.006735075 0.771771779)
(291.627691 0.0109309893 -1.25256494)
(289.489573 0.013551179 -1.55281403)
(292.187872 0.00592429557 -0.678863133)
(290.380254 -0.00749804409 0.859190567)
(290.408806 0.000724735629 -0.0830451259)
(289.072783 -0.0103869642 1.19022959)
(287.875259 -0.0144884192 1.66020991)
(83.4044752 0.00022981164 -0.0273814401)
(99.311092 -0.000261793463 0.0287549001)
(106.96687 0.000216935346 -0.0261966344)
(113.460843 -0.00027316914 0.0298844173)
(119.32503 0.000205831093 -0.0250744934)
(124.762714 -0.000284080894 0.0309991081)
(129.88431 0.000194250441 -0.0238721467)
(134.763166 -0.000295938534 0.0322415919)
(139.45516 0.000180732107 -0.0224323305)
(144.003307 -0.000310069515 0.0337578208)
(148.442774 0.000163717932 -0.0205811633)
(152.801126 -0.000327967981 0.0357127861)
(157.101623 0.000141280279 -0.0181036789)
(161.362967 -0.000351478151 0.0383154957)
(165.60163 0.000110908516 -0.0147122788)
(169.831796 -0.000383091172 0.0418497592)
(174.066524 6.9075214e-05 -0.01000564)
(178.318468 -0.000426289234 0.0467166)
(182.599385 1.0857338e-05 -0.00340982016)
(186.922437 -0.000486021755 0.0534968815)
(191.299193 -7.0919762e-05 0.00590879582)
(195.74464 -0.000569687887 0.0630453303)
(200.27038 -0.000186826486 0.0191719738)
(204.894039 -0.000688183808 0.0766297636)
(209.626608 -0.000352331528 0.0381760785)
(214.488851 -0.000857648034 0.0961331656)
(219.489495 -0.000589945683 0.0655563667)
(224.652648 -0.00110168806 0.124337052)
(229.981375 -0.000932265587 0.105144375)
(235.502471 -0.00145435344 0.165287855)
(241.20607 -0.00142467485 0.162388694)
(247.118287 -0.00196263858 0.224656625)
(253.200161 -0.00213047813 0.244586388)
(259.46655 -0.00269116918 0.309564962)
(265.811711 -0.00312635561 0.360164966)
(272.21196 -0.00369883193 0.42647089)
(278.405703 -0.00445185277 0.513418569)
(284.278915 -0.00494826456 0.570827738)
(289.192593 -0.0059508023 0.68621811)
(293.018794 -0.00605953506 0.698568047)
(293.642176 -0.0069529994 0.800273019)
(294.250933 -0.00598368322 0.689065544)
(293.010091 -0.00681971106 0.786838109)
(294.639219 -0.00569936385 0.657334601)
(292.889235 -0.00670231828 0.768765077)
(294.22782 -0.00532787393 0.612007691)
(292.770398 -0.00644366612 0.737407255)
(293.64357 -0.0048989193 0.560148885)
(292.926337 -0.0061441772 0.703335652)
(293.484579 -0.00432092531 0.49493186)
(292.676298 -0.00581887145 0.66676366)
(293.244906 -0.00392135089 0.44935465)
(292.527411 -0.00557170422 0.638467289)
(293.254165 -0.00365624797 0.418956822)
(292.461443 -0.00505928396 0.579726562)
(293.29769 -0.00315063006 0.361013888)
(292.355847 -0.00469308676 0.537771211)
(292.828247 -0.00280615251 0.321542667)
(292.2246 -0.00422894635 0.484597813)
(292.893174 -0.00170571957 0.195458038)
(292.673679 -0.00396987553 0.454909273)
(293.031717 -0.000355294904 0.0407103459)
(292.585205 -0.00428677224 0.491214029)
(292.966288 0.00152171234 -0.174373769)
(292.527194 -0.00544797988 0.624276768)
(293.014546 0.000770348398 -0.0882721899)
(292.672808 -0.00702853664 0.805389024)
(293.074576 -0.00104976851 0.120275029)
(292.726617 -0.00474086145 0.543238187)
(293.324617 -0.00640761234 0.734231732)
(292.199266 -0.000758481421 0.0869100778)
(293.243428 -0.00872425107 0.999702919)
(291.570662 0.00381893029 -0.437600988)
(294.560471 -0.000934543818 0.107088512)
(293.146961 -0.0130128078 1.49111816)
(291.927403 0.00399164686 -0.457397807)
(291.870372 -0.00810246059 0.928447495)
(291.678674 -0.00731418865 0.838120865)
(291.542658 -0.0103543722 1.1864945)
(289.25454 -0.0104303559 1.1952013)
(80.137862 -0.000856759781 0.0957380763)
(96.5367768 0.00079961301 -0.0945724051)
(104.41095 -0.000871426833 0.0966675139)
(111.058063 0.000788180164 -0.0937114883)
(117.019362 -0.000881812317 0.0974637017)
(122.508287 0.000777897484 -0.0928959227)
(127.64304 -0.000891741486 0.0982588218)
(132.509118 0.000767085195 -0.0919818656)
(137.167327 -0.000902462147 0.0991757506)
(141.668909 0.000754385975 -0.0908324953)
(146.049658 -0.000915200354 0.100332915)
(150.342564 0.000738388587 -0.0892952063)
(154.568941 -0.000931134052 0.101868105)
(158.751571 0.000717382152 -0.0871745015)
(162.903518 -0.000951908953 0.103963061)
(167.042435 0.000688958349 -0.0842022938)
(171.177059 -0.00097978339 0.106873052)
(175.323226 0.000649790003 -0.079998394)
(179.487824 -0.00101804889 0.110968963)
(183.68709 0.000594991239 -0.0740133851)
(187.927525 -0.0010716302 0.116801057)
(192.227195 0.00051737168 -0.0654437927)
(196.592855 -0.00114789075 0.125195372)
(201.045231 0.000406612648 -0.0531075436)
(205.591191 -0.00125755831 0.137395604)
(210.254511 0.000247667934 -0.0352654523)
(215.041255 -0.00141679712 0.155268426)
(219.978276 1.85866011e-05 -0.00937290775)
(225.068845 -0.00164930363 0.181585641)
(230.342294 -0.000312045961 0.0282490555)
(235.794909 -0.00198945968 0.220384133)
(241.456056 -0.000788025067 0.0827950023)
(247.305616 -0.00248385703 0.277316606)
(253.365712 -0.00146755564 0.161213439)
(259.57784 -0.00319416686 0.359567983)
(265.936905 -0.00241835964 0.271484288)
(272.293176 -0.00418025244 0.4739348)
(278.565697 -0.00368683285 0.418356094)
(284.372778 -0.00542485188 0.618139302)
(289.473278 -0.00514715945 0.586932574)
(292.687194 -0.00659821075 0.753444492)
(294.366307 -0.00595438922 0.679483715)
(293.412554 -0.00657956807 0.750975195)
(294.12893 -0.00585393511 0.669428476)
(293.773947 -0.00647267012 0.741600032)
(294.237579 -0.0057573152 0.657257127)
(293.986328 -0.00628752529 0.719499018)
(294.462533 -0.00567087263 0.648835488)
(294.039024 -0.00569180427 0.651594861)
(294.407368 -0.00568411542 0.651083935)
(293.628564 -0.00484454184 0.555166568)
(294.066408 -0.00552883998 0.633495889)
(293.417407 -0.00356515693 0.408522573)
(294.021579 -0.00518342147 0.59399454)
(293.428457 -0.00203777167 0.23351442)
(293.894774 -0.0045254988 0.518592517)
(293.16872 -0.000252011027 0.0289086842)
(293.71514 -0.00366125478 0.41956249)
(293.066237 0.00206044768 -0.236103339)
(293.317766 -0.00211816037 0.242713674)
(292.772589 0.00413416981 -0.473730776)
(293.036037 -0.00276540113 0.316884141)
(292.618641 0.00596017512 -0.682966632)
(292.843399 -0.00216256431 0.247805091)
(292.457299 0.00705844038 -0.808815022)
(292.933089 0.000499657669 -0.0572528161)
(292.29506 0.00578321202 -0.662691855)
(293.023687 0.00533171522 -0.610945229)
(292.107466 0.00242664465 -0.278059514)
(293.188531 0.01045517 -1.19802978)
(292.230133 -0.0045336593 0.519513635)
(293.100513 0.0161057263 -1.84553081)
(292.133055 -0.0056651332 0.649160504)
(291.706255 0.0221801372 -2.54159729)
(291.361284 0.00116407228 -0.133389978)
(294.23116 0.00158185359 -0.181263117)
(292.50585 0.00457676693 -0.524445664)
(291.504608 0.00232055586 -0.265908447)
(293.214499 -0.00113983794 0.130613748)
(290.586983 -0.00816707824 0.935855766)
(77.0068698 2.23655647e-05 -0.00282907034)
(93.9826049 -3.41146222e-05 0.00358508967)
(102.114708 1.76423191e-05 -0.00237298615)
(108.933375 -3.74852669e-05 0.00392147482)
(115.000515 1.51328265e-05 -0.00212769314)
(120.542176 -3.94627385e-05 0.00411063776)
(125.692524 1.34623897e-05 -0.00197010291)
(130.546776 -4.10283115e-05 0.00425903053)
(135.175826 1.18245781e-05 -0.00181113271)
(139.634399 -4.28309077e-05 0.00443887099)
(143.963756 9.59653871e-06 -0.00158080511)
(148.197019 -4.54412123e-05 0.00471444804)
(152.358733 6.09782612e-06 -0.00120216112)
(156.470321 -4.95445608e-05 0.00516356028)
(160.546877 4.07512556e-07 -0.000569933963)
(164.604115 -5.61013506e-05 0.00589654305)
(168.651894 -8.84225212e-06 0.00047328365)
(172.704089 -6.65621428e-05 0.00708040856)
(176.767736 -2.37735753e-05 0.00217139977)
(180.857633 -8.31959292e-05 0.00897573776)
(184.979203 -4.77282868e-05 0.00490878299)
(189.150328 -0.000109573554 0.0119953549)
(193.374996 -8.5971858e-05 0.00929546585)
(197.676052 -0.000151347359 0.0167965421)
(202.055113 -0.000146841875 0.0162986978)
(206.541888 -0.000217490011 0.0244212245)
(211.133335 -0.000243479626 0.0274389878)
(215.868366 -0.00032208049 0.036501085)
(220.735127 -0.000396294028 0.0450708763)
(225.784976 -0.000486922726 0.0555391814)
(230.98982 -0.000636250215 0.0727629565)
(236.4179 -0.000744408921 0.0852907676)
(242.010602 -0.00100846956 0.115742857)
(247.858669 -0.0011403697 0.131075521)
(253.843841 -0.00157503471 0.181173363)
(260.085235 -0.00173350118 0.199675496)
(266.341029 -0.00240835328 0.277406039)
(272.763823 -0.00257684899 0.297172424)
(278.831662 -0.00354902615 0.409031902)
(284.748977 -0.0036339117 0.419136258)
(289.231751 -0.00483706257 0.557218351)
(293.117124 -0.00443422542 0.510600798)
(292.629542 -0.00547400352 0.627846555)
(293.387202 -0.00387200308 0.443203309)
(292.459185 -0.00510332286 0.586071246)
(293.274632 -0.00335766838 0.386258223)
(292.15431 -0.00474246752 0.542444965)
(293.601767 -0.00268067724 0.307143018)
(292.068259 -0.00460119559 0.52750794)
(293.64496 -0.00193916343 0.2222373)
(292.102889 -0.00459974265 0.527055208)
(293.734055 -0.000774948744 0.0888789889)
(292.079805 -0.00457391223 0.524136792)
(293.59617 0.00052851535 -0.0605840296)
(292.195535 -0.00521228309 0.597259933)
(293.565983 0.00142209297 -0.162959438)
(292.114978 -0.00636270986 0.729083656)
(293.378009 0.00240846146 -0.275986281)
(292.224265 -0.0077666691 0.889972419)
(293.013047 0.00350731866 -0.401898335)
(291.589928 -0.00867406291 0.993945998)
(292.918166 0.00464158429 -0.531872245)
(291.798444 -0.00940873903 1.07813384)
(292.821874 0.00595937915 -0.68287998)
(291.83368 -0.00706395682 0.809447724)
(292.685996 0.00643613014 -0.737512147)
(291.547333 -0.00596315019 0.683309612)
(292.581105 0.00486376006 -0.557324129)
(291.544116 -0.00256006198 0.293357991)
(292.505605 0.00103950381 -0.119119614)
(291.309296 0.0016067374 -0.184125255)
(293.015315 -0.00700594543 0.802795218)
(291.502088 0.000104449448 -0.0119677298)
(294.135246 -0.0130327242 1.49341108)
(291.62559 0.0038804848 -0.444659936)
(290.567362 0.00420777629 -0.482165942)
(293.372009 -0.007652621 0.876902713)
(290.409429 -0.00912838675 1.0460089)
(292.577998 -0.00382729449 0.438565041)
(291.571833 -0.00348470415 0.399308237)
(75.4651294 -0.00152019629 0.171597138)
(93.2173079 0.00146114994 -0.170657342)
(101.700003 -0.00153344174 0.17219581)
(108.759335 0.00145232763 -0.170185904)
(114.983695 -0.00154065596 0.172560347)
(120.62462 0.00144581263 -0.169849938)
(125.831654 -0.00154637193 0.172841888)
(130.717235 0.00143990827 -0.169519145)
(135.357248 -0.00155177089 0.173134961)
(139.816356 0.00143361521 -0.169107293)
(144.134854 -0.00155765341 0.173506637)
(148.352971 0.00142600164 -0.168535764)
(152.491302 -0.00156479454 0.174025692)
(156.577619 0.00141621876 -0.167710479)
(160.621158 -0.00157397896 0.174781482)
(164.644165 0.0014030903 -0.166503809)
(168.64896 -0.00158643133 0.175902222)
(172.656683 0.00138489846 -0.164733265)
(176.665017 -0.00160384554 0.177580671)
(180.697254 0.00135949337 -0.162129621)
(184.747327 -0.00162856206 0.18011381)
(188.843495 0.00132337617 -0.158286733)
(192.97562 -0.00166478736 0.1839682)
(197.179765 0.00127094223 -0.152579944)
(201.440012 -0.0017192625 0.189882103)
(205.803567 0.00119348329 -0.144039829)
(210.245183 -0.00180191336 0.199027766)
(214.827754 0.00107847711 -0.131156154)
(219.510493 -0.00192843863 0.213256804)
(224.378806 0.000906061766 -0.111588287)
(229.365596 -0.00212339229 0.235477605)
(234.589535 0.0006465972 -0.0817873651)
(239.937982 -0.0024233232 0.270077775)
(245.579274 0.000253454827 -0.0363872872)
(251.318971 -0.00288454918 0.323461997)
(257.400753 -0.000338090695 0.0321037866)
(263.474389 -0.00357888716 0.404113222)
(269.902709 -0.00119830856 0.132221663)
(276.014097 -0.00457347219 0.520031639)
(282.377035 -0.00236589815 0.268336297)
(287.579136 -0.00583978853 0.667449147)
(292.693036 -0.00364787883 0.417101084)
(294.297752 -0.00699395075 0.800372156)
(295.681466 -0.00393089037 0.449670625)
(293.853368 -0.00676832538 0.773515917)
(295.614976 -0.00378059326 0.431656199)
(294.180538 -0.00632300045 0.724235748)
(295.1648 -0.00359309628 0.411423268)
(293.991406 -0.00576109228 0.660319141)
(295.024343 -0.00321653165 0.368925287)
(294.099628 -0.0050825231 0.582743757)
(295.030403 -0.00277973408 0.318765932)
(294.036157 -0.00448210149 0.513717887)
(294.69023 -0.00204944057 0.234909698)
(293.704142 -0.00344414613 0.394663423)
(294.655844 -0.00118935383 0.136293725)
(293.468559 -0.00200538995 0.229798463)
(294.59773 -0.00046625127 0.0534128175)
(293.258609 -0.000622083814 0.071286797)
(294.787791 0.000108379101 -0.012428072)
(292.867651 0.00109382261 -0.125339514)
(294.530318 0.00257822518 -0.295434466)
(292.356953 0.00285857475 -0.32755728)
(294.742891 0.00362886079 -0.415822569)
(292.017169 0.000879095777 -0.100732768)
(294.698277 0.00536472251 -0.614733988)
(291.866185 0.00211815109 -0.242723225)
(294.369323 0.00906026824 -1.03821667)
(291.6746 0.000381437162 -0.0437188422)
(294.183802 0.0126690926 -1.45174569)
(291.65893 0.00271226045 -0.310801366)
(293.284433 0.0169468619 -1.94192231)
(292.426241 0.0069939715 -0.80142749)
(290.999556 0.017368979 -1.99029002)
(294.639068 -0.00373051889 0.427476864)
(291.536917 -0.00232955513 0.266943827)
(292.623304 0.0127793896 -1.46437435)
(290.832817 0.00229538549 -0.263024772)
(291.367094 -0.00189953194 0.217666229)
(291.339218 -0.004313087 0.494231579)
(73.0535747 -0.00107578169 0.122746986)
(91.5484514 0.00105699935 -0.121779049)
(100.362656 -0.00108284229 0.123358369)
(107.626716 0.00105207824 -0.121333095)
(113.969424 -0.0010873082 0.123768006)
(119.670342 0.00104885862 -0.121055988)