/*--------------------------------*- C++ -*----------------------------------*\
| =========                 |                                                 |
| \\      /  F ield         | OpenFOAM: The Open Source CFD Toolbox           |
|  \\    /   O peration     | Version:  v2006                                 |
|   \\  /    A nd           | Website:  www.openfoam.com                      |
|    \\/     M anipulation  |                                                 |
\*---------------------------------------------------------------------------*/
FoamFile
{
    version     2.0;
    format      ascii;
    class       volScalarField;
    location    "0.0703000019";
    object      alphat;
}
// * * * * * * * * * * * * * * * * * * * * * * * * * * * * * * * * * * * * * //

dimensions      [1 -1 -1 0 0 0 0];


internalField   nonuniform List<scalar> 
14400
(
4.91516645e-06
0.000302056878
0.000401228986
0.000478848582
0.000550427802
0.000619577537
0.000691619795
0.000763384263
0.000840531574
0.000915240116
0.000995650757
0.00106887607
0.00114635702
0.00120922003
0.0012720924
0.00130903219
0.00133836724
0.00133156979
0.00131011556
0.00124107319
0.00114372805
0.000983409513
0.000770560997
0.00047578645
1.51944205e-05
3.88744941e-10
3.53429092e-11
7.35602717e-11
4.19979333e-12
2.77239911e-13
5.2646128e-11
3.00759701e-12
8.75464055e-12
4.74784221e-11
1.94139207e-06
2.92764822e-05
4.43059889e-05
4.5922373e-06
3.67385815e-17
1.01337879e-05
4.39551563e-06
1.51289924e-05
1.13738129e-07
4.75028571e-06
1.77922237e-05
2.35536093e-07
2.23434037e-10
1.33493613e-09
8.54445133e-12
9.4549154e-14
7.66047589e-11
1.46205506e-06
7.58329372e-06
6.08619291e-06
4.83363046e-06
1.58505762e-06
2.57934837e-07
1.20493693e-07
6.06442838e-09
9.48055985e-07
1.11339054e-10
4.91246012e-07
1.2106746e-06
3.2555096e-06
2.37133024e-06
4.25474866e-06
3.65564716e-06
4.93197043e-06
5.067483e-06
6.53892726e-06
6.3100641e-06
4.09706996e-06
4.30729863e-06
3.50631017e-06
3.76198766e-06
3.53302468e-06
3.62565457e-06
3.99715915e-06
3.73609074e-06
3.91308138e-06
2.77047034e-05
0.000546368042
0.000699193059
0.0008147828
0.00092241624
0.00102628174
0.00114383059
0.00126481194
0.00141256552
0.00156070673
0.00174462338
0.00192032129
0.00214251987
0.00234292169
0.00260203527
0.00282117353
0.00311117036
0.00333424526
0.00363896852
0.00384356791
0.0041378283
0.00429309971
0.00454048021
0.00460648663
0.00475580016
0.00468010174
0.00466168223
0.00437562544
0.00410068125
0.00353398519
0.0029116554
0.00200173857
0.000898384156
2.72646769e-06
1.26702687e-08
1.50283298e-12
1.92997907e-08
3.58631986e-05
8.39939853e-05
7.42185326e-07
7.17886543e-06
6.89010048e-06
2.05048297e-05
1.13352075e-05
2.99856015e-07
3.27660263e-05
6.3183929e-05
7.2497326e-05
0.000109384276
8.45410994e-05
7.88855667e-05
9.71155755e-07
1.09031773e-05
2.46914268e-05
3.091719e-05
5.1958918e-05
6.80555021e-05
4.61504571e-05
6.98592282e-05
1.80774566e-05
3.19041199e-05
2.85977714e-06
1.63701162e-06
2.95906528e-06
3.91629021e-06
3.87760648e-06
3.40166388e-06
4.62673366e-06
2.51765333e-06
1.69003403e-06
1.24404241e-06
1.29560151e-06
2.64010812e-06
3.83164515e-06
3.79286007e-06
3.79882528e-06
4.14212813e-06
3.60176487e-06
3.86608877e-06
3.80244883e-06
2.29078095e-05
0.000512902248
0.000657938604
0.000770636584
0.000879669752
0.000990371509
0.0011188805
0.00125504738
0.00142086028
0.00159204222
0.00180426384
0.00201465304
0.00227988345
0.00253086017
0.00285367053
0.00314321331
0.00352480863
0.00384604547
0.00428224326
0.00462163791
0.00510001608
0.00543472141
0.00593024753
0.00622408046
0.00669273711
0.0068906692
0.00726118175
0.00728299127
0.00744784808
0.00718300921
0.00699223635
0.00630200662
0.00557255586
0.00433805694
0.00301259699
0.00124948424
7.85401224e-05
3.55367578e-07
5.68607194e-08
8.793322e-06
1.36239021e-06
1.74074205e-06
3.03592365e-06
2.16511115e-12
3.36312396e-06
1.87266827e-07
4.29121903e-11
5.69784145e-12
9.47243869e-14
4.26575964e-13
8.69892288e-16
5.88670905e-13
2.34222051e-14
1.62291202e-12
3.714983e-13
2.46113996e-12
2.38588488e-11
1.54765354e-08
1.6242023e-09
1.84105525e-06
2.36841092e-05
1.01906449e-05
9.74978924e-06
2.79611908e-06
5.75565493e-06
2.17024241e-06
4.07490872e-06
2.19655652e-06
3.39436595e-06
5.2602103e-06
3.68390192e-06
3.10804565e-06
3.09096461e-06
4.01975056e-06
3.72772166e-06
3.94167122e-06
3.54799479e-06
3.79322879e-06
3.80055851e-06
3.77861081e-06
1.76624675e-05
0.000471634696
0.000606756503
0.000713601689
0.000819315468
0.000929175993
0.00105755009
0.00119531096
0.00136249818
0.00153729145
0.00175321502
0.00197107543
0.00224521564
0.00251106508
0.00285261116
0.00316924184
0.00358551105
0.0039516793
0.00444581442
0.0048540751
0.00542226751
0.00585657456
0.00648435057
0.00691669769
0.00757322565
0.00795838286
0.00858790849
0.00885572566
0.00936578042
0.00941129899
0.00965830517
0.00933131657
0.00910774256
0.0082121373
0.00726122767
0.00561837562
0.00384958269
0.001581338
5.02891801e-09
6.12570409e-12
5.60860517e-06
2.43294434e-08
1.28476706e-05
4.61662084e-05
3.30550999e-06
2.4386583e-05
5.05341741e-05
0.000125925986
0.000175209694
0.000175502314
0.000117126469
0.000105755272
6.02116612e-05
5.4319147e-05
6.14842919e-05
2.7266122e-05
4.48705825e-05
1.76886571e-05
2.7797802e-05
7.88634813e-06
1.33285761e-09
1.84221854e-06
4.8140118e-06
3.59596914e-06
4.76149536e-06
3.34349051e-06
4.43886064e-06
2.15618697e-06
3.02714026e-06
2.96839972e-06
4.18325978e-06
9.44232788e-06
4.48865521e-06
3.93751936e-06
3.78725947e-06
3.80270052e-06
3.82986274e-06
3.93717785e-06
3.78303995e-06
3.96583192e-06
1.34525988e-05
0.000431826862
0.000557410062
0.000659250902
0.000760869701
0.00087068974
0.000995587575
0.00113553643
0.00129692466
0.001476082
0.00168273725
0.00190909012
0.00217026447
0.00245224089
0.0027776176
0.00312310895
0.00352129681
0.00393575469
0.0044120432
0.0048960377
0.00544966694
0.005996139
0.00661708735
0.0072080011
0.00787259624
0.00847396345
0.00913807579
0.00969214885
0.0102809952
0.0106949694
0.011089259
0.0112205938
0.0112400133
0.0108812847
0.010272765
0.00915432538
0.0076220542
0.00549842775
0.00295239306
0.00047658978
1.07237291e-05
1.53573726e-05
2.8955079e-06
2.41644014e-09
2.13590433e-12
2.80914859e-14
3.59548182e-14
7.25372893e-12
6.08142687e-13
1.48991488e-10
3.43760559e-06
1.77104008e-07
1.11964047e-05
2.19117756e-05
4.48284332e-05
4.04740497e-05
6.41455631e-05
3.26352468e-08
6.92495785e-05
2.09206703e-06
7.97616075e-05
5.27987545e-05
1.88205842e-05
1.35810791e-05
6.9142529e-06
6.80709064e-06
7.56669538e-06
3.88832008e-06
5.04145265e-06
1.53965914e-06
2.52340322e-06
5.76112035e-06
6.07654557e-06
3.98378348e-06
3.95741389e-06
4.0846312e-06
3.84638756e-06
3.59320811e-06
4.04088956e-06
3.78490491e-06
1.05389945e-05
0.000399911711
0.00051825853
0.000616905063
0.000716607418
0.000827478972
0.000951143524
0.00109375519
0.00125216441
0.00143561505
0.00163671346
0.00187061376
0.00212345647
0.00241903028
0.00273352595
0.003102812
0.0034883498
0.00394251355
0.00440579501
0.00495266389
0.00549490289
0.006135914
0.00674965536
0.00747628596
0.00814165711
0.00893064758
0.00960997242
0.0104158716
0.0110452492
0.011788888
0.0122659163
0.0128180656
0.0129857004
0.013146261
0.0127747754
0.0122526395
0.0110320406
0.00945759613
0.00706306529
0.00433588653
2.0570984e-07
1.71909366e-08
7.32775239e-06
2.949435e-05
7.65427649e-05
5.13156943e-05
6.02195268e-05
0.000143445573
0.00023189731
0.00025834798
1.77448003e-05
1.16618896e-05
3.1283719e-09
5.62763249e-12
3.12675764e-12
3.09079395e-14
3.84689182e-13
1.39573308e-05
2.91392696e-11
8.82267875e-08
1.27940331e-06
2.0409329e-06
3.70181202e-06
3.69256848e-06
1.7896373e-06
2.88834096e-06
1.86300752e-06
3.45560976e-06
5.36800208e-06
3.9607575e-06
6.3188406e-06
3.35713731e-06
6.63391032e-06
3.61609543e-06
3.48067616e-06
3.75480419e-06
3.68968174e-06
3.96280098e-06
3.69886966e-06
3.82769531e-06
7.96953279e-06
0.000365414525
0.000476261155
0.000571288208
0.000668726175
0.000779173078
0.000900558117
0.00104305889
0.00119698477
0.00138055309
0.00157422425
0.00180954251
0.00205158989
0.00235172359
0.00265179319
0.00303158065
0.0033991118
0.00387377682
0.00431598179
0.00489882683
0.00541793645
0.00611716006
0.00670722358
0.00752205985
0.00816549823
0.00908137611
0.00974460417
0.0107260002
0.0113525916
0.0123318054
0.0128318831
0.0136925307
0.0139278486
0.0144826489
0.0142475472
0.0142114976
0.0132145775
0.0121870549
0.0100646313
0.00761294432
0.00361581616
0.000474796233
8.25794085e-06
4.44339564e-09
7.3967386e-11
2.04066408e-11
1.62906449e-05
3.33254601e-06
1.45765342e-09
1.28078382e-15
1.23725025e-05
0.000139674194
0.000120738451
0.000127815099
0.000160433479
0.000127595828
0.000170877348
2.89404763e-05
0.00013646484
2.14725475e-06
3.50346684e-05
2.18714324e-06
6.0893774e-06
5.6783453e-06
3.68648298e-06
5.68716597e-06
1.75513371e-06
5.45898856e-06
4.42860468e-06
3.21491533e-06
7.14366212e-06
3.63577446e-06
2.70144196e-06
3.37687866e-06
3.53265856e-06
4.07571525e-06
3.8228854e-06
3.60819351e-06
3.8527248e-06
3.77176427e-06
6.3108656e-06
0.000339397247
0.000445289051
0.000538286751
0.000636440646
0.000746563232
0.000870100363
0.00101070963
0.00116766611
0.00134674693
0.00154542006
0.00177302184
0.00202392886
0.00231250619
0.00262809349
0.00299196415
0.00338571474
0.00383987105
0.00432463035
0.00488259215
0.00546788057
0.00613849322
0.00682697277
0.00761043824
0.00839390074
0.00927720173
0.0101318515
0.0110827022
0.0119622562
0.0129196703
0.0137442813
0.0146040422
0.0152437263
0.0158379189
0.0160898363
0.0161602244
0.0157204765
0.0148885308
0.0133275242
0.011069766
0.00776081372
0.00341429033
0.00112271115
0.000430081342
0.000205126937
0.000127993481
4.36288547e-07
5.60631533e-06
0.000244452705
0.000350830653
0.000148940336
8.95288328e-10
3.33787349e-14
9.35752303e-14
5.32725296e-15
3.68175416e-11
5.55502948e-10
1.10619483e-05
1.44205433e-07
3.27587811e-05
9.83650679e-07
4.8705444e-07
1.32779367e-06
1.28151654e-06
1.69211346e-06
1.91622346e-06
1.68835536e-06
3.816044e-06
2.62966094e-06
7.25263154e-06
5.95273555e-06
2.56661672e-06
2.00783928e-06
3.30340909e-06
3.89349486e-06
3.33717888e-06
3.62732983e-06
4.08760013e-06
3.67226077e-06
3.73108522e-06
4.79555356e-06
0.000309680326
0.000410263578
0.000500799882
0.000598600155
0.000706980934
0.000830502658
0.000967078553
0.00112403101
0.00129579507
0.00149537877
0.00171142891
0.001965582
0.00223717801
0.00256041539
0.00290044813
0.00330931852
0.00373125715
0.00424305785
0.00475896934
0.00538937917
0.0060068519
0.00676642695
0.00748464851
0.0083744967
0.00917988625
0.0101865716
0.0110475873
0.0121360692
0.0129954892
0.0140978611
0.0148605532
0.0158584842
0.0163735493
0.0170730763
0.0171096322
0.0172074454
0.0164246521
0.0154700727
0.0133905447
0.010787468
0.00686689325
0.00187412734
0.000655422972
4.20864412e-06
1.52064044e-07
6.50299229e-05
0.000152701044
1.01301932e-08
1.75274467e-08
7.19964797e-08
0.000157557084
0.000178358276
0.000163873454
0.000240742736
9.55922914e-05
0.000213414033
6.21767896e-07
4.37016022e-05
5.31064156e-06
1.36655646e-05
2.82761246e-06
6.47838634e-07
1.57506303e-06
3.85526238e-06
2.85934386e-06
5.61981926e-06
5.99542193e-06
3.79356491e-06
6.26793326e-06
4.44045278e-06
1.54607625e-06
1.45226648e-06
3.35826026e-06
3.96671733e-06
3.36585339e-06
4.27303381e-06
3.64114729e-06
3.70826317e-06
3.87005517e-06
3.81744047e-06
0.00028722934
0.000384672783
0.000474979745
0.000573927406
0.000682979489
0.000807681278
0.00094377524
0.00110178995
0.00127166908
0.00147286632
0.00168554131
0.00194284244
0.00220943201
0.00253875971
0.00287209192
0.00329206496
0.00370576309
0.00423668555
0.00474333898
0.00540501946
0.00601318423
0.00682137524
0.00753159278
0.0084933068
0.00929372645
0.01040173
0.0112633807
0.0124890603
0.0133592834
0.0146416175
0.0154331987
0.0166612771
0.0172356672
0.0182234424
0.0183669576
0.0188191269
0.0182112207
0.0176810239
0.0158604845
0.0137190733
0.0100559109
0.00530580868
0.000374252346
0.000163565354
3.99570992e-05
3.19532223e-05
8.39882385e-06
0.000298333329
0.00032729804
0.000194759256
1.93310467e-07
8.86470522e-10
4.95740621e-13
9.40911432e-09
8.03281691e-05
1.37371158e-05
1.25063775e-05
0.000109734468
3.51122472e-07
9.79669767e-05
1.60726607e-05
2.55425652e-06
2.01468865e-06
3.58451336e-06
3.30188229e-06
7.18593698e-06
3.19134023e-06
3.39547743e-06
3.69381402e-06
2.22114623e-06
2.02209559e-06
2.50566898e-06
4.02979943e-06
4.18838423e-06
3.52490272e-06
3.63807636e-06
4.03163628e-06
3.87636515e-06
3.80723675e-06
2.88254276e-06
0.000260203251
0.000353647021
0.000443188592
0.000540831514
0.000649701527
0.000770912656
0.000906657218
0.00105796038
0.00122833379
0.00141862202
0.00163409085
0.00187487545
0.00214861254
0.00245398166
0.00280181074
0.00318817886
0.00362810625
0.00411329265
0.00466413482
0.00526527115
0.005943911
0.00667385096
0.00749103773
0.00835350739
0.00930872596
0.0102928911
0.0113687519
0.0124430717
0.0135981097
0.0147014661
0.0158585726
0.0168859814
0.0179140125
0.0186954504
0.0193827181
0.0196543788
0.0196729819
0.0190406662
0.0179044216
0.0158053678
0.0128481644
0.00852027293
0.00252157698
9.48345056e-05
1.14701598e-06
5.17773117e-11
2.56081506e-06
2.99556761e-09
6.44998922e-13
6.25493289e-05
0.00017302859
0.000234359172
0.000197905556
0.000337997951
2.40505832e-10
1.07533539e-06
6.04309617e-06
1.96234191e-08
8.64304581e-06
2.73131354e-12
7.39393818e-07
1.46863714e-07
1.92624917e-06
4.88552389e-06
4.31840238e-06
1.05687558e-05
4.95405513e-06
6.14487342e-06
7.09403702e-06
1.31979039e-06
5.02181547e-06
4.84275073e-06
4.38584981e-06
3.93827493e-06
4.08242062e-06
4.14418166e-06
3.77409699e-06
3.9516469e-06
3.90440855e-06
2.39848036e-06
0.000243659405
0.000335660123
0.000426428798
0.000525584118
0.00063557317
0.000757279261
0.000893105129
0.00104384192
0.00121342189
0.00140212891
0.00161601095
0.0018541629
0.00212558993
0.00242726472
0.00277227274
0.00315408494
0.00359128857
0.00407179164
0.00462138712
0.00521940526
0.00590084334
0.00663227426
0.00746026376
0.0083332589
0.00931230508
0.0103213714
0.0114394456
0.0125588359
0.0137797952
0.0149548193
0.0162071267
0.0173403846
0.0184990421
0.0194292079
0.0202891905
0.0207614597
0.0210019352
0.0206297689
0.0197699392
0.0179905694
0.0153492507
0.0113318742
0.00562585827
0.00125873391
0.000210988113
0.000126539658
0.0001874925
0.000383262032
0.000398480851
0.000110491751
4.00649018e-14
3.2137193e-10
3.29808011e-06
4.7932427e-08
0.000231404526
0.000305579963
4.7382721e-05
0.000182826953
3.41531274e-06
0.000143634164
1.32111378e-05
3.5525812e-06
5.56498136e-06
5.19980066e-06
6.73453803e-06
6.21376054e-06
2.54366524e-06
4.91863135e-06
2.00956044e-06
1.44161211e-06
8.73408731e-06
7.69359768e-06
4.59336066e-06
4.03678152e-06
3.99661943e-06
3.99761493e-06
3.98799187e-06
4.05101852e-06
3.95086689e-06
1.89773609e-06
0.000222816765
0.000312941563
0.000404080795
0.000503553113
0.000613017473
0.000733798876
0.000867691737
0.00101648992
0.00118274906
0.00136867359
0.00157765603
0.00181222992
0.00207679591
0.00237411722
0.00270978111
0.00308657607
0.00351137337
0.00398658037
0.00452023537
0.00511365851
0.00577556099
0.00650512881
0.00731072142
0.00818813964
0.00914375008
0.0101688556
0.0112654178
0.0124195944
0.0136251316
0.0148627472
0.0161116261
0.01734659
0.0185223842
0.0196067627
0.0205165007
0.0212095124
0.0215487297
0.0214746006
0.0207816727
0.0193777888
0.0169804737
0.013440145
0.00838795922
0.00236551398
0.000233752152
1.37544843e-09
4.03906846e-05
3.65030873e-08
1.49692298e-12
5.93586465e-05
0.000202134524
0.00029224774
2.08041994e-05
0.000184704211
8.23593983e-09
9.64059692e-10
6.41546307e-11
1.66769441e-10
2.80915471e-05
6.74340989e-08
6.35848548e-06
6.98234663e-06
5.15158437e-06
5.45524856e-06
5.47492937e-06
3.26578252e-06
4.43737455e-06
4.35770016e-06
4.21956382e-06
1.74412463e-06
9.12557786e-06
1.02918297e-05
4.69483561e-06
3.90225104e-06
4.05907155e-06
4.00011565e-06
3.86766786e-06
3.9199476e-06
4.00022311e-06
1.55006685e-06
0.000206014581
0.000295656557
0.000388380864
0.000489465995
0.000599514855
0.000721347516
0.000854676819
0.00100473682
0.00116932932
0.00135748259
0.00156345672
0.00180211107
0.00206189953
0.00236631764
0.00269483058
0.00308333583
0.00349783186
0.00399155542
0.00451082767
0.00513255384
0.0057749852
0.00654659757
0.00732671944
0.00826498378
0.00918860849
0.0102995232
0.0113579511
0.0126299894
0.013793272
0.0151886119
0.0163960206
0.0178369106
0.0189812919
0.0203281616
0.021231233
0.0222498088
0.0226265493
0.0229427764
0.0223534399
0.021396401
0.0191924221
0.0161506997
0.0114719327
0.00479351276
0.00124686403
0.000212365554
2.74386061e-05
0.000696552864
0.000542212906
1.52356175e-05
1.08378782e-09
1.6356984e-06
0.000231106118
0.000401464255
0.000215790371
0.000434765361
0.000124358378
0.000252440905
7.45120975e-06
0.000103807037
3.37245464e-05
1.99317515e-05
9.31199557e-06
5.41314204e-06
5.15930442e-06
1.62126771e-06
3.06246792e-06
1.84970231e-06
1.21843873e-06
3.95676213e-06
6.00284558e-06
8.93599017e-06
4.74079136e-06
3.54375584e-06
4.18479341e-06
4.02920616e-06
4.01775158e-06
3.9787819e-06
3.82040827e-06
1.19556375e-06
0.000184940382
0.000273389018
0.000366547629
0.000466980071
0.000576082296
0.000695463582
0.000827151936
0.000973161573
0.00113610264
0.00131837624
0.00152334101
0.00175379412
0.00201405342
0.00230728252
0.00263894835
0.0030124401
0.00343448064
0.00390833666
0.00444189246
0.0050376137
0.0057040979
0.00644192705
0.00725949888
0.00815412291
0.00913263193
0.0101877015
0.0113227743
0.0125248667
0.0137913126
0.01510261
0.0164452762
0.0177920516
0.0191107041
0.0203639981
0.0214891193
0.0224347028
0.0230916474
0.0233862518
0.0231452044
0.0222574702
0.0204733289
0.0176259787
0.0134061285
0.00703946032
0.00110145593
1.17953776e-05
1.96633914e-08
1.79487468e-08
5.49843931e-11
8.6372311e-05
0.000211117765
7.58378485e-05
4.70451814e-09
7.99828542e-11
3.48992473e-12
3.46324628e-09
1.68633364e-08
9.73478915e-09
1.42956243e-05
3.58753668e-06
9.7939956e-06
1.14283608e-05
5.93741699e-06
3.13517517e-06
4.06775674e-06
1.34232863e-06
4.28334213e-06
2.72809167e-06
3.37811121e-06
6.41057078e-06
3.3175983e-06
7.23588534e-06
4.32731521e-06
3.78845769e-06
4.21475681e-06
3.9505361e-06
3.91939923e-06
3.91367784e-06
3.78671668e-06
9.87076347e-07
0.00017018002
0.000259049648
0.000353466781
0.000454868535
0.000563284113
0.000683008517
0.000812165928
0.000958967117
0.00111710526
0.00130163323
0.00149864238
0.00173414703
0.00198207433
0.0022850926
0.00259850133
0.00298944241
0.00338546863
0.00388881604
0.00438654494
0.00503017414
0.0056487549
0.00646165482
0.00721655499
0.00822437059
0.00912168885
0.010340263
0.01137004
0.0127979658
0.0139276248
0.0155379366
0.0167048247
0.0184330132
0.0195323748
0.0212562404
0.0221213072
0.0236292468
0.0240015462
0.0249458059
0.0244328955
0.0242634733
0.0222829368
0.0201690894
0.0158846271
0.0104103679
0.00257681513
0.00027019614
0.00036585134
0.000935286913
0.000689647631
0.000337671539
9.43761266e-05
0.000373462325
0.000314563132
0.000623989095
0.000297026704
0.00058673387
8.22097072e-05
0.000305066282
8.73240623e-06
8.90547042e-05
5.93225896e-06
9.73016544e-06
5.70870621e-06
3.49614004e-06
3.31142101e-06
1.31712809e-06
2.47701828e-06
1.26518763e-06
2.12923909e-06
8.55973691e-06
2.0781956e-06
4.23494082e-06
3.52548698e-06
4.30367224e-06
4.05527806e-06
3.80239682e-06
3.96221118e-06
3.9190165e-06
3.77108467e-06
8.16228588e-07
0.000155686765
0.000244886514
0.000340243581
0.000441510477
0.000548955509
0.000667163828
0.000794051022
0.000938269266
0.00109281592
0.00127362896
0.0014653955
0.00169579918
0.00193631857
0.00223250805
0.00253571112
0.00291775931
0.00330014707
0.0037924082
0.00427266791
0.00490346764
0.00550100064
0.00630090482
0.0070325706
0.00803044011
0.0089050927
0.0101216289
0.0111329611
0.0125724568
0.0136914814
0.015332488
0.0164996729
0.0182827614
0.0193967725
0.0212049647
0.0221042442
0.0237324988
0.0241679598
0.0252794937
0.0248765236
0.0249424373
0.0231478583
0.0213688927
0.0173619737
0.0125344632
0.00454860888
0.000941783291
3.45424856e-08
3.69018799e-10
1.03671977e-08
1.83322311e-11
2.46464075e-12
2.83533852e-10
1.35103121e-10
6.75530821e-08
9.00488395e-10
3.11504907e-10
2.77949454e-06
5.60663203e-08
2.66384621e-05
7.24133784e-06
6.5773572e-06
7.53620941e-06
4.45279691e-06
3.17710314e-06
2.78823096e-06
2.15901315e-06
3.09441592e-06
2.54980297e-06
4.5691771e-06
5.47116051e-06
2.4505456e-06
2.38854189e-06
4.48729498e-06
4.33121153e-06
3.83185811e-06
3.69298601e-06
3.93010941e-06
3.91077663e-06
3.78907623e-06
6.89445401e-07
0.000143501088
0.00023409844
0.000331084937
0.000433520175
0.000540938138
0.00065993313
0.000785609459
0.000931215056
0.0010830641
0.00126665415
0.0014535047
0.00168902575
0.00192128511
0.00222618
0.00251616624
0.00291219724
0.00327418346
0.00378803312
0.00423776918
0.00490104984
0.00545431934
0.00630235117
0.00697199364
0.00804055474
0.00883154794
0.0101510378
0.0110539193
0.0126410697
0.0136246974
0.0154721374
0.0164760268
0.018538178
0.0194620749
0.0216331795
0.0223202759
0.0244002888
0.0246122954
0.0262582645
0.0256415138
0.0263022118
0.0243412962
0.0231735337
0.01911406
0.0149169518
0.00689384278
0.000822556476
0.000491050704
0.00098072759
0.00072416516
0.000415341919
0.000340520283
0.000526005322
0.000350725774
0.000734773647
0.000384839527
0.000703812118
6.01646125e-05
0.00032386833
1.53609791e-07
1.2448679e-05
2.90158387e-06
5.59592036e-06
3.85465924e-06
4.02214383e-06
2.05964966e-06
4.08070382e-06
2.67428597e-06
2.87376111e-06
5.9792597e-06
3.74210578e-06
3.00498211e-06
1.09145844e-06
3.52496982e-06
3.79018386e-06
4.09137546e-06
3.91827319e-06
3.80881443e-06
3.86658056e-06
3.83754436e-06
5.68093793e-07
0.000127689209
0.000218830161
0.000316269801
0.000417775178
0.000524240275
0.000640813476
0.000765418959
0.000907206409
0.00105859419
0.00123654314
0.00142431068
0.00165164541
0.00188721473
0.00218036282
0.00247745872
0.00285678864
0.00323161536
0.00372189035
0.00419278732
0.00482296632
0.00540909937
0.00621087855
0.00692941873
0.00793383164
0.00879528969
0.0100270297
0.011029099
0.0124989298
0.0136197463
0.0153153359
0.0165060162
0.0183795522
0.0195531956
0.0215016721
0.0225145904
0.0243486403
0.0249708732
0.0263698002
0.0262432126
0.0266942567
0.0252765577
0.0239975792
0.0204908193
0.0163983858
0.00916082022
0.00149999795
0.000131734068
2.57413296e-08
3.62742904e-07
3.33166574e-09
1.10352907e-06
3.97592562e-08
5.9214622e-15
0.000150382623
2.89624284e-07
3.4774339e-05
1.05485372e-05
9.12043948e-05
1.9115814e-05
5.5805653e-05
1.4865621e-05
4.69881355e-06
4.79333769e-06
2.51001445e-06
3.0492308e-06
4.19856079e-06
3.7306751e-06
5.97045638e-06
6.06339034e-06
2.82047414e-06
3.03034003e-06
7.32488478e-07
2.47676391e-06
4.12587682e-06
3.90558816e-06
3.93988574e-06
3.70660772e-06
3.83257504e-06
3.76937147e-06
4.92883638e-07
0.000115905561
0.00020838014
0.000306654004
0.000408184632
0.000513957518
0.000629809823
0.000752912471
0.000893816703
0.00104294167
0.00122019403
0.00140477625
0.00163201319
0.00186323854
0.00215751622
0.00244885235
0.00283153764
0.00319897025
0.00369640274
0.00415816705
0.00480171092
0.00537705456
0.00620187275
0.00690822601
0.00794994034
0.00879805093
0.0100867692
0.0110741807
0.0126263063
0.0137304429
0.0155389614
0.0167103374
0.0187323079
0.0198853418
0.0220224753
0.0230189025
0.0250861716
0.0257072285
0.0273864199
0.0272910221
0.0280674121
0.0267340598
0.0258160109
0.0224750162
0.0187550403
0.0118778454
0.0031185032
0.00147313549
0.000826698595
0.000558612126
0.000448225228
0.000231300487
0.00055680603
0.000356490112
0.000369152135
0.000273381538
0.000503745147
5.27588665e-05
0.000128800495
2.76758534e-09
2.55911926e-05
9.33716781e-06
2.45681008e-06
3.66951619e-06
3.41092781e-06
3.09881221e-06
6.03358924e-06
4.30367161e-06
5.39281677e-06
9.7795427e-06
1.9735838e-06
2.99789114e-06
7.12997944e-07
2.69178986e-06
4.59784083e-06
3.73142921e-06
3.86682429e-06
3.71399807e-06
3.74819626e-06
3.78964725e-06
4.55923173e-07
0.000103298933
0.000196643275
0.000295216292
0.000395585167
0.000500759633
0.000613677741
0.000736669066
0.000872413651
0.00102300921
0.00119171585
0.00138069202
0.00159426224
0.00183465194
0.00210770267
0.00241557422
0.00276611048
0.00316111039
0.00361090299
0.00411637752
0.00469070853
0.00533294192
0.00605911725
0.00686500715
0.00776891076
0.00876147358
0.0098617871
0.011053567
0.0123542357
0.0137395347
0.0152213859
0.0167677455
0.0183785699
0.0200149767
0.021654086
0.0232509841
0.0247438432
0.0260810249
0.0271403691
0.0278611093
0.0280330989
0.0275816926
0.0261748559
0.0237320079
0.0197191308
0.013840481
0.00477318076
0.000430215457
0.00086205571
0.000485734435
9.38436835e-06
1.50536239e-05
3.39483594e-05
7.22788848e-07
0.000594231684
0.000145194723
0.000341269112
4.31368122e-05
0.000194002
5.34536182e-06
3.7858488e-05
1.44630595e-05
3.11329659e-06
3.93929002e-06
4.12138972e-06
3.9472751e-06
8.11303861e-06
6.47948955e-06
7.29424177e-06
6.36866479e-06
2.35868752e-06
3.42061371e-06
9.79041034e-07
3.36373247e-06
4.45909831e-06
3.6299051e-06
3.64168981e-06
3.8724442e-06
3.94156533e-06
3.79387769e-06
4.58701831e-07
9.09535796e-05
0.000185187199
0.000283757138
0.000383630809
0.000487406806
0.000599473575
0.000720160508
0.000855498329
0.00100274908
0.00117222786
0.00135642638
0.00157290913
0.00180652082
0.00208600905
0.0023843403
0.00274683325
0.00312850973
0.00359859771
0.00408557758
0.00469241529
0.00530906066
0.00608506982
0.00685559137
0.00783309033
0.00877680987
0.00998213131
0.0111068013
0.0125524762
0.0138469141
0.0155230262
0.0169496199
0.0188134796
0.0202977744
0.0222577803
0.0236697957
0.0255581961
0.0266814109
0.0282136098
0.0286990934
0.0294157942
0.0287232765
0.0279075492
0.0252426709
0.0217569922
0.015844469
0.00695828208
0.00168814233
0.000204206273
4.96661356e-06
0.000475973195
0.000367226768
0.000566614597
0.000396584939
5.77323123e-07
9.78646773e-05
0.00024828764
3.63685988e-06
6.36449482e-05
2.1004668e-05
4.68175464e-06
9.25218534e-06
2.99424574e-06
4.13824582e-06
5.15226747e-06
4.91627141e-06
1.03729809e-05
9.69786031e-06
7.65097272e-06
6.76292812e-06
2.90157207e-06
3.11083736e-06
1.52083427e-06
3.22503271e-06
3.87355928e-06
3.79357628e-06
3.80924936e-06
3.8397774e-06
3.72110677e-06
3.80566137e-06
4.52840461e-07
7.97925462e-05
0.000174299684
0.00027234283
0.000370784087
0.000473079925
0.000582454403
0.000701446946
0.000832756817
0.0009786372
0.00114224691
0.00132598994
0.00153399908
0.00176892392
0.00203631163
0.00233901419
0.0026844664
0.00307551774
0.00352197471
0.00402620152
0.0046007678
0.00524659713
0.00597912555
0.00679618967
0.00771567657
0.00872995583
0.00985831973
0.0110850267
0.0124291669
0.0138649212
0.0154086348
0.0170240315
0.0187191598
0.0204489935
0.0222012766
0.0239270218
0.0255713969
0.0270907327
0.0283533203
0.0293332202
0.0297780957
0.0296861417
0.0286424404
0.0266506746
0.0230762321
0.0178726168
0.00948248037
0.00158203236
0.00117762049
0.000313562371
3.3703744e-08
6.19378397e-08
0.000165784456
2.5048686e-05
0.000662134251
0.000262408754
0.000484872392
1.02127978e-05
0.000292532773
7.22663525e-06
6.64649842e-05
4.6756734e-06
3.66941284e-06
3.97816397e-06
5.00468869e-06
6.57840236e-06
8.12090496e-06
8.63667257e-06
6.54545397e-06
3.98940254e-06
4.60756433e-06
3.41828724e-06
2.18283447e-06
4.02520514e-06
3.78936048e-06
3.77432418e-06
3.79121181e-06
3.90319696e-06
3.87045323e-06
3.76756119e-06
4.11559555e-07
6.88656273e-05
0.00016332367
0.000260607418
0.000357877393
0.000458371732
0.000565952838
0.00068237708
0.000811719109
0.000954250782
0.00111603599
0.00129547248
0.00150219432
0.00173160052
0.00199884771
0.00229452571
0.00264194509
0.00302415032
0.00347616847
0.00396940598
0.00455535882
0.00518772716
0.00594068119
0.00674141
0.00769473035
0.00868910438
0.00987022445
0.0110720375
0.0124941855
0.0138973705
0.0155513154
0.0171225522
0.0189679761
0.0206377781
0.0225893282
0.0242360354
0.0261377943
0.0275601982
0.0291447382
0.0300198707
0.0308490911
0.0306653688
0.0300499417
0.0279924875
0.024846278
0.019658114
0.0120906722
0.00274357945
0.000720385907
0.000956785283
0.00058914996
0.000424319053
9.50296196e-05
9.49453671e-05
3.60142966e-05
7.50716247e-06
0.000151317321
0.000107219956
9.97434611e-05
2.61207659e-05
1.12398201e-05
1.54374401e-06
9.13518408e-07
2.39585479e-06
4.93142985e-06
7.06955431e-06
7.90531429e-06
1.01908387e-05
6.03195554e-06
4.13913635e-06
5.64315253e-06
3.12608646e-06
3.1310784e-06
3.74787397e-06
3.7413532e-06
4.14224102e-06
4.00320053e-06
3.90354904e-06
3.78747349e-06
3.81209574e-06
3.65935415e-07
5.77533251e-05
0.000150946258
0.000246823721
0.000342196544
0.000440577668
0.000545247388
0.000659157264
0.000784645432
0.000924651787
0.0010814295
0.00125871354
0.00145891389
0.00168709982
0.00194584114
0.00224210496
0.00257845566
0.00296440417
0.00340208719
0.0039042574
0.00447174472
0.00512118438
0.00585046408
0.00668048193
0.00760343935
0.00864454441
0.00978644285
0.0110585864
0.0124296334
0.0139335426
0.015520938
0.0172304102
0.0189910308
0.0208433796
0.0226918036
0.024570114
0.0263559918
0.0280587633
0.0295296956
0.0307260033
0.03147132
0.0316375507
0.0310027161
0.029328493
0.0262833207
0.0215640747
0.0142834626
0.00461963264
0.000504774035
0.00033393434
0.000221905359
3.62594372e-06
0.000651427089
0.000438638354
0.000657781831
0.000370125271
0.000456070367
2.63875748e-05
0.00020756072
1.47404735e-05
3.579717e-05
3.05362357e-06
1.12992772e-06
2.92647703e-06
3.73377073e-06
8.08526156e-06
4.70842075e-06
7.39599665e-06
4.08946042e-06
2.06472415e-06
6.61187784e-06
3.71665915e-06
5.01494347e-06
3.5118105e-06
3.67452997e-06
3.94550677e-06
3.85807686e-06
3.81495085e-06
3.86718647e-06
3.79383093e-06
3.20420878e-07
4.71203806e-05
0.000138410667
0.000232681437
0.000326426135
0.000422603227
0.000525052311
0.000635990912
0.000759085575
0.000895374528
0.00104993115
0.00122260324
0.00142117873
0.00164363576
0.00190199319
0.00219115314
0.00252936271
0.00290655931
0.00334986798
0.00384136866
0.00442048324
0.00505706716
0.0058070865
0.00662174915
0.00757861426
0.00860143557
0.00979515296
0.0110453217
0.0124909692
0.0139681566
0.0156573995
0.0173349722
0.0192285879
0.0210458376
0.0230617401
0.0249079747
0.0268983501
0.0285838128
0.0302980753
0.0315089166
0.0325375094