/*--------------------------------*- C++ -*----------------------------------*\
| =========                 |                                                 |
| \\      /  F ield         | OpenFOAM: The Open Source CFD Toolbox           |
|  \\    /   O peration     | Version:  v2006                                 |
|   \\  /    A nd           | Website:  www.openfoam.com                      |
|    \\/     M anipulation  |                                                 |
\*---------------------------------------------------------------------------*/
FoamFile
{
    version     2.0;
    format      ascii;
    class       volScalarField;
    location    "0.0703000019";
    object      ducSensor;
}
// * * * * * * * * * * * * * * * * * * * * * * * * * * * * * * * * * * * * * //

dimensions      [0 0 0 0 0 0 0];


internalField   nonuniform List<scalar> 
14400
(
0
5.27531385e-05
0
0.00204979188
0
0.00318446591
0
0.00367613211
0
0.00370395364
0
0.00344137563
0
0.00302921133
0
0.00266715155
0
0.00259985434
0
0.00254336645
0
0.00257781754
0
0.0036317241
0
0.00336069089
0
0.0566595796
0
0.0389286799
0
0.00522511399
0
0.0170496962
0
0.00336282836
0
0.00353506667
0
0.00107349821
0
0
0
0
0
0
0
0
0
0
0
0
0
0
0
0
0
0
0
0
0
0
0
0
0
0
0
0
0
0
0
0
0
0
0
0
0
0
0
0
0
0.000518832818
0
0.00215979031
0
0.00351924187
0
0.00466551995
0
0.00529308499
0
0.00545799856
0
0.0053346801
0
0.00518047463
0
0.00487261378
0
0.0044405922
0
0.00391603118
0
0.00333626132
0
0.00253145082
0
0.00164537591
0
0.0014139312
0
0.00526546822
0
0.0235934625
0
0.0106193366
0
0.0089726841
0
0.00291388503
0
0
0
0
0
0
0
0
0
0
0
0
0
0
0
0
0
0
0
0
0
0
0
0
0
0
0
0
0
0
0
0
0
0
0
0
0
0
0
0
0
0.000533176994
0
0.00222228676
0
0.00362532747
0
0.00472308337
0
0.00549122153
0
0.0059547519
0
0.00615921054
0
0.00615369794
0
0.00597815574
0
0.00566410187
0
0.00523657561
0
0.00471278767
0
0.00410114878
0
0.00341533982
0
0.00271134184
0
0.00213833464
0
0.00184276104
0
0.020721312
0
0.0250464271
0
0.0183803272
0
0.0133158884
0
0.00956423818
0
0.00724318403
0
0.00661586976
0
0.00536610473
0
0.0051352734
0
0.00516000013
0
0.00479449096
0
0.00219981592
0
0.00176149478
0
0.0029094918
0
0.00257647273
0
0.00382434679
0
0.00261414641
0
0.00510084587
0
0.00749563259
0.00163274109
0.00619649892
0
0
0.00297284047
0
0
0
0
0.000541164479
0
0.00226164182
0
0.00372962394
0
0.00492752319
0
0.00580810514
0
0.00638552173
0
0.00670654614
0
0.00682122748
0
0.00676927592
0
0.00657908049
0
0.00627180496
0
0.00586427718
0
0.00537043012
0
0.00480080721
0
0.00416544414
0
0.00348425792
0
0.00283898498
0
0.00308250797
0
0.0140326318
0
0.0190907782
0
0.0156503262
0
0.0120050337
0
0.00871072791
0
0.00521767205
0
0.00193480602
0
0
0
0
0
0
0
0.00281349076
0
0.0023356183
0
0.000604533475
0
0
0
0
0
0
8.79677281e-05
0
0.00121247966
0
0.00102471322
0
0.00196556744
0
0.00374779679
0
0.00198133723
0.00126274342
0
0.000122221381
0
0.000552603479
0
0.000935856916
0
0.00125498933
0
0.00148922171
0
0.00163844468
0
0.0017140562
0
0.00172876694
0
0.00169145625
0
0.00160623907
0
0.00147317026
0
0.00128872355
0
0.00104502161
0
0.000727462135
0
0.000310320742
0
0
0
0
0
0
0
0
0
0
0
0
0
0
0
0
0
0.000412716774
0
0.00132271153
0
0.00186138758
0
0
0
0
0
0
0
0
0
0
0
0
0
0
0
0
0
0
0
0
0
0
0
0
0
0
0
0
2.24690585e-05
0
0.000497546544
0
0.00104438327
0
0.00154239346
0
0.00194081405
0
0.00222001722
0
0.0023884701
0
0.00246478637
0
0.00246546275
0
0.00240075707
0
0.00227535883
0
0.00209072141
0
0.00184675021
0
0.00154208681
0
0.00117217912
0
0.000724981853
0
0.000172470429
0
0
0
0
0
0
0
0.00402361893
0
0.00548297888
0
0.00187321576
0
0
0
0
0
0
0
0
0
0
0.00122620163
0
0
0
0
0.00194910862
0
0.0039896706
0
0.00817093603
0
0.0107631757
0
0.00997762909
0
0.0104901466
0
0.00375309234
0
0
0
0
0
0
0
5.28838494e-05
0
0.00120819535
0
0.00258032439
0
0.00387243894
0
0.00493300405
0
0.00570095526
0
0.0061993227
0
0.00648211068
0
0.00659945483
0
0.00658584264
0
0.00646094577
0
0.00623579411
0
0.00591891853
0
0.00551995291
0
0.00505022469
0
0.00452109495
0
0.00394243491
0
0.00332586968
0
0.0026953824
0
0.00221732914
0
0.00336181349
0
0.0158453294
0
0.0128145133
0
0.0101883262
0
0.00986391183
0
0.00906505231
0
0.00849734229
0
0.0074998927
0
0.00786769103
0
0.00535234697
0
0.00560572985
0
0.0082205936
0
0.00816505483
0.00170335511
0.0110773565
0.0019678258
0.00758172333
0.00212838865
0.00191682245
0.00297992492
0
0.00391974771
0
0.00277098186
0
0
0
0
1.35891352e-05
0
0.000292274736
0
0.000630280631
0
0.000959204495
0
0.00123655661
0
0.00144537296
0
0.00159215368
0
0.00169213941
0
0.00175988224
0
0.0018058059
0
0.00183594889
0
0.00185284069
0
0.00185655824
0
0.00184534866
0
0.00181545157
0
0.00176040428
0
0.00166944597
0
0.00152712084
0
0.00131600378
0
0.00104539803
0
0.000682243428
0
0.00916391439
0
0.0127312135
0
0.0136744748
0
0.0125708089
0
0.0127814153
0
0.0126302559
0
0.0129748224
0
0.0115053979
0
0.0102940532
0.00162695678
0.0114011764
0.00438908591
0.00591638389
0.00817220398
0.000961445796
0.0130188076
0
0.0170073838
0
0.0195141956
0
0.0188793705
0
0.0112564849
0.00413187031
0.00105218145
0.0101613079
0
0.00871941606
0.00357761486
0
0.000226766571
0
0.00100967865
0
0.00178670001
0
0.00248899781
0
0.0030300307
0
0.00339632699
0
0.00361368368
0
0.00371492861
0
0.0037252797
0
0.00365924821
0
0.00352299113
0
0.00331803386
0
0.00304571726
0
0.00270955706
0
0.0023153371
0
0.00187022499
0
0.001379717
0
0.000837162844
0
0.000222085068
0
0
0
0
0
0.0116263797
0
0.00999804661
0
0.00759246492
0
0.00780390568
0.00124702593
0.00777627287
0.0017257109
0.00826519514
0.00121326422
0.00897650106
0.000359174056
0.00954537301
0.00156957532
0.0139433341
0
0.0186846223
0
0.01742035
0
0.023194802
0
0.0241464786
0
0.0242065827
0
0.0208346473
0
0.00766758406
0.0132322804
0
0.0127937933
0.000951225399
0.002519559
0.00406956263
0
0.000394534912
0
0.0017354224
0
0.00310772535
0
0.00437492411
0
0.00537655112
0
0.0060908489
0
0.00656876231
0
0.00687544564
0
0.00706399887
0
0.00716942966
0
0.00721157018
0
0.00720112897
0
0.00714595508
0
0.00705638783
0
0.00694803937
0
0.00684235306
0
0.0067674191
0
0.00676388762
0
0.00692233316
0
0.00752088771
0
0.0100952767
0
0.0277464598
0.00110050184
0.0291424155
0.00148820564
0.0280050522
0.00140769337
0.025998671
0.00245318461
0.0257341768
0.00431133224
0.0255640485
0.0058497544
0.0262999576
0.00877101219
0.0245515062
0.0106911392
0.0190903673
0.0161929944
0.0168653982
0.0186189923
0.0182368559
0.0260928019
0.0128032487
0.0282537161
0.0103111223
0.0307995845
0.0103790324
0.0270215347
0.014882668
0.0195922703
0.0248399989
0.0135891597
0.0182498989
0.0190448724
0.0116547606
0.0134319339
0.00584479019
4.39286365e-06
0
0.00011390069
0
0.000262222512
0
0.000413123741
0
0.000538600858
0
0.000627630762
0
0.000682079096
0
0.000708109893
0
0.00071117924
0
0.000694364925
0
0.000658321264
0
0.000601843949
0
0.000522753473
0
0.000418694729
0
0.000287556327
0
0.000126837074
0
0
0
0
0
0
0
0
0
0
0
0
0
0.00705789517
0.00156072636
0.00405256778
0.00423363474
0.00225339156
0.00629296589
0.000952232648
0.00637709885
0
0.00577927784
0.00138958647
0.0039161562
0.00387292196
0.00575115808
0.00870040114
0.00596338852
0.0103023325
0.0049636814
0.0178652171
0
0.0226534343
0
0.0300936832
0
0.0346341385
0
0.0299786541
0.00717169598
0.0119378155
0.0133211983
0.0072183998
0.0336462122
0.024074235
0.0113320972
0.0282989335
0.016815141
2.3037118e-06
0
0.00013014679
0
0.000321592949
0
0.000517988744
0
0.000676903708
0
0.00078160802
0
0.000833642892
0
0.000840489497
0
0.000808503839
0
0.000740514579
0
0.000635767811
0
0.000490796533
0
0.000300387285
0
5.8757062e-05
0
0
0
0
0
0
0
0
0
0
0
0
0
0
0
0
0
0
0
0
0
0
0
0
0
0
0
0
0
0
0
0
0
0.000307251235
0
0.00145063975
0
0.00295760641
0
0.00649305828
0
0.0065351824
0
0.0040555472
0
0
0
0.00159645215
0.0103464722
0.00427736713
0.000167695245
0.0123539852
0.00911016027
0
0
4.95297654e-06
0
3.03242219e-05
0
5.65960944e-05
0
7.54904007e-05
0
8.35817719e-05
0
8.06703752e-05
0
6.75726202e-05
0
4.48469822e-05
0
1.23564073e-05
0
0
0
0
0
0
0
0
0
0
0
0
0
0
0
0
0
0
0
0
0
0
0
0
0
0
0
0
0
0
0
0
0
0
0
0
0
0
0
0
0
0
0
0
0
0
0
0
0
0
0
0
0
0
0
0.00668079511
0
0
0.00123668543
0
0
0
0.000164662833
0
0.000770986711
0
0.00146799133
0
0.00212822058
0
0.00265930109
0
0.00305096916
0
0.00333243513
0
0.00354088825
0
0.00370776721
0
0.00385588414
0
0.00400040229
0
0.00415050771
0
0.00431136163
0
0.00448566055
0
0.00467469772
0
0.00487821864
0
0.00509399445
1.05536626e-05
0.00532188573
0.00068584023
0.0055671806
0.00138317041
0.00590347815
0.00213684469
0.0066743127
0.00332596744
0.00919114374
0.011393544
0.0216444464
0.0191984641
0.0204186333
0.0191944675
0.0184118163
0.0193699182
0.0168230723
0.0196114824
0.015178643
0.0193382253
0.013600822
0.0220735432
0.0110786691
0.0234780115
0.00281308863
0.0186725129
0.00289166642
0.0211177916
0
0.0171422264
0
0.0140256806
0
0.0115797703
0
0.00535151236
0
0.00371907192
0.0159402895
0
0
0
0.00650049339
0
0
3.27581296e-06
1.6229215e-06
3.86006888e-05
0
8.66960477e-05
0
0.000141500914
0
0.000197395336
0
0.000254026213
0
0.000314656248
3.76670594e-06
0.000384254917
4.70835742e-05
0.00046848311
0.000106971807
0.000573328202
0.000185625822
0.000704957016
0.000285785084
0.000869531184
0.000410177729
0.00107268963
0.000561284473
0.00131946936
0.000740969294
0.00161422245
0.000950432396
0.00196123219
0.00119132421
0.00236580404
0.00146102957
0.00283327935
0.00175325086
0.00337542065
0.0020519721
0.00402285049
0.00234049085
0.00489534587
0.00268045458
0.0065149399
0.00356919822
0.0134411872
0.0119046003
0.0263473338
0.0123831033
0.0281177585
0.0110038973
0.0277132684
0.0111063032
0.0269565193
0.0122854601
0.0291599171
0.0127624066
0.0301137518
0.00991084902
0.0302789012
0.00996010596
0.0323138389
0.00840403214
0.0269925407
0.00421517345
0.0252431389
0.000869999247
0.0202744112
9.26499305e-05
0.0135437343
0.00653532819
0.011886477
0.0211494025
0.00759780066
0.0234015623
0
0.00622951388
0
0.00263885197
0
0
0
0.000295389862
0
0.00155202488
0
0.0030800666
0
0.00450832781
0
0.00561772776
0
0.00637878624
0
0.00684972377
0
0.00710370252
0
0.00719760884
0
0.0071652059
0
0.00701953158
0
0.00675850515
0
0.00637145993
0
0.00584703759
0
0.00518036205
0
0.00437552197
0
0.00344658209
0
0.00241403634
0
0.00130737471
0
0.000160943529
0
0
0
0
0
0
0
0
0
0
0
0
0.00436794506
0
0.00538716667
0
0.00634183091
0
0.0041072763
0
0.00753020683
0.00617710801
0.00866191951
0.0159870674
0.011753699
0.0282321931
0.0137436873
0.034643894
0.0113450294
0.0377718565
0.00131972495
0.023410849
0
0.0101693259
0.00519856332
0.00728771834
0.0161672232
0.00325566533
0.0110462074
0.00522172825
0
0.000306834121
0
0.00167896294
0
0.00338441722
0
0.00497603447
0
0.00620696195
0
0.00704398945
0
0.0075518018
0
0.00781145772
0
0.00788561154
0
0.00781078693
0
0.0076003732
0
0.00725045477
0
0.00674747604
0
0.00607698356
0
0.0052316061
0
0.00421264487
0
0.00302424824
0
0.00165364389
0
4.24223585e-05
0
0
0
0
0
0
0
0
0
0
0
0
0
0
0
0
0
0
0
0
0
0
0
0
0
0.00776832814
0
0.0258133411
0
0.035362719
0
0.0337736435
0
0.0112254973
0
0
0
0
0.0161879972
0
0.00461694265
0.00645311168
0
0.000544662082
0
0.00299863656
0
0.00608774234
0
0.00897861377
0
0.0112398036
0
0.0128214421
0
0.0138488787
0
0.0144783381
0
0.01483596
0
0.0150049286
0
0.0150302342
0
0.0149276779
0
0.0146937603
0
0.0143172936
0
0.0137940169
0
0.0131424885
0
0.0124196258
0
0.0117357724
0
0.0112606909
0
0.0112065286
0
0.0118980475
0
0.0144231742
0
0.0263023763
0
0.0264910867
0
0.0198520855
0
0.0139836289
0
0.00860129328
0
0.0178304607
0
0.015698919
0
0.0133782129
0
0.01359953
0
0.0143522991
0
0.0131949648
0
0.012501254
0
0.0145856627
0
0.0150349651
0
0
0
0
0
0
0
0
0
0.000345307437
0
0.0019865719
0
0.00409035169
0
0.00605561904
0
0.0075925471
0
0.00867016796
0
0.00937593389
0
0.0098182931
0
0.010085635
0
0.0102383458
0
0.0103123964
0
0.0103261931
0
0.0102868489
0
0.0101966652
0
0.0100585522
0
0.00987796109
0
0.00966019136
0
0.00940752568
0
0.00912920792
0
0.00888188974
0
0.00891364731
0
0.0105476149
0
0.0189023848
0
0.0393750676
0
0.0338822442
0.0120278042
0.0390494231
0.00126113273
0.0363618509
0.015290563
0.022127508
0.000796174225
0.0261312265
0.0108456485
0.0211284093
0.0111825555
0.0151623102
0.0111817706
0.0164804676
0.0117776543
0.00715489367
0.0124171224
0.00555157174
0.0142413699
0.00622280069
0.0195417688
0.00484681834
0.0337811635
0
0.00987990594
0.00994389693
0
0.0124417062
0
0
0
0.00043298616
0
0.00254182522
0
0.0052758863
0
0.00783056764
0
0.0098388749
0
0.0112652928
0
0.0122262985
0
0.0128648687
0
0.0132988042
0
0.013609943
0
0.0138486267
0
0.0140418389
0
0.0142006651
0
0.0143271382
0
0.0144229659
0
0.0144919055
0
0.0145372797
0
0.0145417988
0
0.0144517065
0
0.0142004325
0
0.0139808685
0
0.0144728327
0
0.0177422839
0.00515158846
0.0232759939
0.0119404271
0.0436477026
0
0.0240347579
0.00802417753
0.0232537803
0.00112412851
0.0155921199
0.0238350248
0.00842732343
0.0176354228
0.00308032168
0.018695122
0
0.0225731886
0
0.0222388953
0
0.0257426502
0
0.0243262954
0
0.0160389793
0
0.00201732345
0
0
0.0188017139
0
0.000469051104
0.0125164403
0.00448856761
0
1.25226539e-05
0
9.10496817e-05
0
0.000198351299
0
0.000304039493
0
0.000396252157
0
0.000475683169
0
0.000549219387
0
0.000625544452
0
0.00071338804
0
0.000821212778
0
0.000957379678
0
0.00113034387
0
0.00134893367
3.95126911e-05
0.00162096053
0.000344164104
0.00195985504
0.00081199518
0.0024004524
0.00146478021
0.00305094837
0.00243350446
0.00409371736
0.00388400384
0.0058736908
0.00536745541
0.00858110364
0.00671088966
0.0118130689
0.00793864433
0.0135285043
0.0115294895
0.0137446523
0.0394507492
0.0268824977
0
0
0.0468515864
0.0246823827
0.0452000967
0.01918842
0.0356224195
0.0295602954
0.0280403427
0.0142540247
0.0309707242
0.0115356357
0.0295639041
0.0114938167
0.0243625693
0.00308158879
0.0245734947
0
0.0202632622
0
0.00781206448
0
0
0
0
0
0
0
0
0
0
0
0
0.000223553085
0
0.00135557419
0
0.00284558656
0
0.00424328273
0
0.00536954846
0
0.00621584612
0
0.00685223927
0
0.00736344307
0
0.00782270015
0
0.00828633163
0
0.00879519705
0
0.00937579867
0
0.0100380601
0
0.0107689865
0
0.0115221517
0.000237404609
0.0121935399
0.00200456726
0.012586127
0.00400078723
0.0123859134
0.00628546501
0.0113659626
0.00874747978
0.00985041852
0.0107421209
0.00969402915
0.011006074
0.0159296508
0.00777675573
0.0387628652
0.00649772776
0.0530430131
0.107132945
0.0395043914
0.0345029074
0.0531064719
0.0311596051
0.0536845839
0.0432229828
0.0489967017
0.0406203648
0.0530935802
0.0284764203
0.0423946153
0.0312430165
0.0401884603
0.0198977794
0.039706395
0.0139762976
0.0323850976
0.00472131942
0.0229279749
0.00174288301
0.00748066842
0.00585257553
0
0.00524535228
0
0.0105898263
0
0
0
0
0
1.37909072e-06
2.33393753e-05
0
0.000125658856
0
0.000256340742
0
0.00038832922
0
0.000514978803
0
0.000640558648
0
0.000775241859
5.65290358e-05
0.000931699127
0.000186934638
0.00112397665
0.000360756533
0.00136771283
0.000582191203
0.00168064906
0.000853166289
0.00208256827
0.00116852562
0.00259318696
0.00151071656
0.0032289261
0.00183293334
0.0040031702
0.00207428444
0.00494438252
0.00221451041
0.00596163546
0.00207315616
0.00684079168
0.00171341012
0.00726723563
0.00120209558
0.00678994151
0.000803164133
0.0054558393
0.00143146089
0.00489961846
0.00555875085
0.0089260639
0.0403602868
0.0188149928
0.0589141119
0.0710235719
0.0431110391
0.0117386938
0.0364743766
0.0308619218
0.0470114542
0.0178018639
0.0372747963
0.0315868788
0.0488675699
0.0251882181
0.0341244263
0.0186892643
0.0314974989
0.020181761
0.0189562569
0.0128157719
0.0100695069
0
0.00202496987
0
0.00502057379
0
0
0
0.0112686375
0.010467053
0
0
0
0
0
8.93631475e-05
0
0.000646211603
0
0.00140787422
0
0.00211174243
0
0.00266207389
0
0.00305374836
0
0.00332196582
0
0.00350906044
0
0.00365080706
0
0.00377438723
0
0.00390064864
0
0.00404743231
0
0.00425023372
0
0.00458703756
0
0.0051534831
0.000139377569
0.00615874979
0.00133595176
0.0079992745
0.00289335729
0.0111357247
0.0050387286
0.0161389062
0.0081673566
0.0219531207
0.0131588759
0.024942858
0.0211123132
0.0174635003
0.0339169253
0.0110895983
0.0475254769
0.0577888609
0.0591292064
0.0623336086
0.0573002835
0.0427644402
0.0517110118
0.039825537
0.0436361695
0.0622085523
0.0460284501
0.0360102959
0.0376726659
0.0336482221
0.0307831198
0.0265891338
0.0247574559
0.0136205461
0.0151056056
0.000418382662
0.00951197272
0
0.00175004275
0
0
0
0
0
0
0
0
0
0
0.0044259183
1.65208198e-05
2.74183632e-05
0.000152028994
6.00263448e-05
0.000408074505
6.95079368e-05
0.000678896763
0.000107830764
0.000952068207
0.000207027268
0.00123400693
0.000382251911
0.00154263358
0.000643559213
0.00190189196
0.00100264641
0.00233865911
0.00147530006
0.00288191433
0.00208333655
0.00356331462
0.00284082949
0.00441231119
0.00376844083
0.00545631935
0.00485950674
0.00669148835
0.0060493805
0.00816394101
0.00731931598
0.00966337783
0.00822776807
0.0109342644
0.00880360596
0.0119369775
0.00878880737
0.0120759983
0.00816351769
0.0108560156
0.00765192112
0.00867850459
0.0106895711
0.00855693826
0.0209185366
0.0171157161
0.0326308953
0.0346791822
0.0597038251
0.0262337459
0.0587478977
0.0243985478
0.0638836374
0.0159072597
0.0668296352
0.0585269252
0.034613274
0.0496333637
0.0352439303
0.0309364938
0.0432527845
0.0299618876
0.0324794323
0.0184394521
0.0222400558
0.0150187643
0.00979771644
0.00378169513
0.010518883
0.000733745571
0.00732631975
0.00686659672
0
0
0
0
0
0
0
0
0
0
7.49215584e-05
0
0.000588888203
0
0.0013121189
0
0.00198377869
0
0.00252309053
0
0.00293209699
0
0.00324927581
0
0.00352012526
0
0.00378557467
0
0.00408165647
0
0.00443759181
0
0.00487668192
0
0.00542204289
0
0.00610972563
0.000765937843
0.0070064421
0.00209490366
0.00815412274
0.00395010661
0.00975555369
0.00661632969
0.011976454
0.0102323928
0.0150110821
0.014768025
0.0191110659
0.0195314667
0.0241411904
0.0234194892
0.0296491608
0.0287884641
0.037548214
0.0463729365
0.0165951982
0.0850214478
0.0411983814
0.0890664609
0.0611645898
0.0831568943
0.0785078536
0.036495985
0.0504272947
0.0348019469
0.0495670229
0.0428304221
0.0396492412
0.026158814
0.0285180328
0.0170643392
0.0175042877
0.00644341745
0.00974129016
0
0
0
0
0
0
0
0
0.0085779606
0
0
0.00100105855
0
0
9.40173853e-06
0
0.000215709218
0
0.000744749997
0
0.00130362624
0
0.00179285005
0
0.00219785824
0
0.00254349016
0
0.00286758373
0
0.00320783859
0
0.00359772549
0
0.00406432985
0.000556766282
0.00463235204
0.00136205426
0.00532063618
0.00235578313
0.00613842635
0.00357804631
0.00709093764
0.00503721043
0.00818214446
0.00670797007
0.00946552846
0.00854532649
0.0111660909
0.0104743308
0.0138502753
0.0124510227
0.0187132754
0.0150446102
0.026955351
0.0204398381
0.0355764052
0.0306455699
0.0337505392
0.0402118344
0.020094202
0.0803956277
0.0866853585
0.110301827
0.0755825935
0.0446910834
0.119216567
0.0484835621
0.0520173837
0.0546435367
0.0396684341
0.0475462666
0.0441175597
0.016640878
0.026763306
0.00996169245
0.0205796704
0.00694422045
0.00783748451
0.00269242099
0
0
0
0
0
0
0
0
0
0
0
0
0.0029145777
0.00508058089
0
7.88983707e-05
0
0.000775355824
0
0.00184233138
0
0.0027955423
0
0.00350489458
0
0.00397617397
0
0.00426674771
0
0.00444162101
0
0.00455637485
0
0.00465719205
0
0.0047866058
0
0.00499055835
0
0.00533383533
0
0.00592418211
0
0.00695132433
0.0013594168
0.00874714011
0.00343925908
0.0118528194
0.00627638938
0.017002869
0.0100515658
0.0247091194
0.0147127107
0.0337289656
0.0203194732
0.0377859193
0.0312384666
0.0330530391
0.0610855428
0.0246013815
0.102781676
0.0568646735
0.0901112034
0.0535497324
0.0706511715
0.176728378
0.0994669408
0
0.0605922108
0.0498715687
0.0559989357
0.0428885412
0.0148502406
0.0269157728
0.0208362035
0.00885008275
0
0
0
0
0
0
0
0
0
0.0123350868
0.00268540699
0.00177771961
0
0
0
0
0
0
4.81779916e-05
0
0.000529974043
0
0.00206419501
0
0.0037491285
0
0.00591095828
0
0.0077105473
0
0.00939422046
0
0.00983380609
0
0.00929257918
0
0.00930229421
0
0.00956805207
0
0.0103168729
0.000414998677
0.0113805223
0.00182997857
0.0126420212
0.00328948965
0.0141351657
0.0046576163
0.0159042397
0.00577792499
0.0179529764
0.00651298506
0.0200929928
0.00686842477
0.0216133354
0.00735873056
0.0207939809
0.00970041318
0.0149781577
0.017176735
0.00397523729
0.0329196219
0
0.0751000799
0.0246668301
0.0952107622
0.149476046
0
0.0845669774
0.0911241213
0
0.107257495
0.10091891
0.0082463208
0.0388177033
0.00851586371
0.0267396072
0
0.0111402193
0
0.0012736258
0
0
0
0
0
0
0
0
0
0
0
0.0149886801
0
0
0.0056621098
0
0.00142697037
0
0.000188015325
0
0.00151359065
0
0.00379440943
0
0.00584259681
0
0.00736659311
0
0.00839646409
0
0.0090604718
0
0.00949231977
0
0.00979677302
0
0.0100455982
0
0.0102852706
0
0.0105394753
0
0.0108048826
0
0.0110426855
0
0.0111682992
0
0.0110451071
0
0.0104281758
0.00101441861
0.00884557688
0.00263935858
0.00552023736
0.00509268852
0
0.00864648727
0
0.0122923181
0
0.011224723
0.0123882853
0
0.08203649
0
0.040691689
0.0802268042
0
0.0513868479
0.0382529764
0
0.0221918435
0
0
0
0
0
0
0
0
0
0
0
0
0
0
0
0
0
0
0
0
0
0
0.00589442808
0.00562817591
3.46657829e-05
0
0.000506092502
0
0.00213904097
0
0.00397851356
0
0.00549096205
0
0.0065818046
0
0.0073072184
0
0.00776138915
0
0.00802771176
0
0.00816503606
0
0.0082094427
0
0.00817836903
0
0.00807185485
0
0.00786762629
0
0.00751803494
0
0.00695783471
0
0.00613010648
0
0.00500843733
0.000144828776
0.00363202437
0.00136822242
0.00224137197
0.00168455239
0.00152257409
0
0.00227815602
0
0.00251786652
0
0
0
0
0.0804682404
0
0
0.00378544266
0
0
0
0
0
0
0
0
0
0
0
0
0
0
0
0
0
0
0
0
0
0
0
0.00324717016
0
0
0
0
0.000190048709
0
0.00175566585
0
0.0044198302
0
0.00688054559
0
0.00873446275
0
0.00994807922
0
0.0106193811
0
0.0108574208
0
0.0107355289
0
0.0102863558
0
0.00951252191
0
0.0084022697
0
0.00695131575
0
0.00518253452
0
0.00316987027
0
0.00107511788
0
0
0
0
0
0
0
0
0
0
0
0
0
0
0
0
0
0
0
0
0
0
0
0
0
0
0
0
0
0
0
0
0
0
0
0
0
0
0
0
0
0
0
0
0
0.00825582544
0.00912720857
0.00341522606
5.91896752e-06
0
0.000318013006
0
0.00141721468
0
0.00265236346
0
0.00363278606
0
0.00424187958
0
0.00448115691
0
0.00438175449
0
0.00395959416
0
0.00320121024
0
0.00206707048
0
0.000502483293
0
0
0
0
0
0
0
0
0
0
0
0
0
0
0
0
0
0
0
0
0
0
0
0
0
0
0
0
0
0
0
0
0
0
0
0
0
0
0
0
0
0
0
0
0
0
0
0
0
0
0
0
0
0
0
0
0.00512185731
0
7.78679188e-05
0
0.000969268357
0
0.00245423084
0
0.0038051253
0
0.00471461576
0
0.00509184559
0
0.00492492383
0
0.00418975913
0
0.00281124182
0
0.00066013888
0
0
0
0
0
0
0
0
0
0
0
0
0
0
0
0
0
0
0
0
0
0
0
0
0
0
0
0
0
0
0
0
0
0
0
0
0
0
0
0
0
0
0
0
0
0
0
0
0
0
0
0
0.0117409734
0
0
0
0.00354833796
0.00534829333
0
0
0
0
0
0
4.25166485e-05
0
0.000144537101
0
2.92867415e-05
0
0
0
0
0
0
0
0
0
0
0
0
0
0
0
0
0
0
0
0
0
0
0
0
0
0
0
0
0
0
0
0
0
0
0
0
0
0
0
0
0
0
0
0
0
0
0
0
0
0
0
0
0
0
0
0
0
0
0
0
0
0
0
0
0
0
0
0
0
0.0134877808
0.00960512969
0
0
0
8.41749314e-05
0
0.000378426816
0
0.000530493065
0
0.000359992
0
0
0
0
0
0
0
0
0
0
0
0
0
0
0
0
0
0
0
0
0
0
0
0
0
0
0
0
0
0
0
0
0
0
0
0
0
0
0
0
0
0
0
0
0
0
0
0
0
0
0
0
0
0
0
0
0
0
0
0
0
0
0
0
0
0
0
0
0
0
0
0
0
0
0
0
0
0
0
0
0
0
0
0
0
0
0
0
0
0
0
0
0
0
0
0
0
0
0
0
0
0
0
0
0
0
0
0
0
0
0
0
0
0
0
0
0
0
0
0
0
0
0
0
0
0
0
0
0
0
0
0
0
0
0
0
0
0
0
0
0
0
0
0
0.00136641528
0
0.00677796578
0.00751030023
0.0087264979
0.00762810981
0
0
0
0
0
7.42031786e-05
0
6.19039915e-05
0
0
0
0
0
0
0
0
0
0
0
0
0
0
0
0
0
0
0
0
0
0
0
0
0
0
0
0
0
0
0
0
0
0
0
0
0
0
0
0
0
0
0
0
0
0
0
0
0
0
0
0
0
0
0
0
0
0
0
0
0
0
0
0
0
0
0
0
0
0
0.00457243982
0.00457656527
0
0
0
0
0
0
0
0
0
0
0
0
0
0
0
0
0
0
0
0
0
0
0
0
0
0
0
0
0
0
0
0
0
0
0
0
0
0
0
0
0
0
0
0
0
0
0
0
0
0
0
0
0
0
0
0
0
0
0
0
0
0
0
0
0
0
0
0
0
0
0
0
0
0.00144827468
0
0
0.00581974302
0.00465931816
0.000545637878
0.00391053868
0
0
0
0
0
0
0
0
0
0
0
0
0
0
0
0
0
0
0
0
0
0
0
0
0
0
0
0
0
0
0
0
0
0
0
0
0
0
0
0
0
0
0
0
0
0
0
0
0
0
0
0
0
0
0
0
0
0
0
0
0
0
0
0
0
0
0
0
0
0
0
0
0
0
0
0
0
0
0.0123796755
0.00655534769
0
0
0
6.30405332e-06
0
0.000122384016
0
0.000138278262
0
0
0
0
0
0
0
0
0
0
0
0
0
0
0
0
0
0
0
0
0
0
0
0
0
0
0
0
0
0
0
0
0
0
0
0
0
0
0
0
0
0
0
0
0
0
0
0
0
0
0
0
0
0
0
0
0
0
0
0
0
0
0
0
0
0
0
0
1.57963323e-05
0
0
0.00331495241
0
0
0
0
0
0
0
0
0
0
0
0
0
0
0
0
0
0
0
0
0
0
0
0
0
0
0
0
0
0
0
0
0
0
0
0
0
0
0
0
0
0
0
0
0
0
0
0
0
0
0
0
0
0
0
0
0
0
0
0
0
0
0
0
0
0
0
0
0
0
0
0
0
0
0
0
0
0
0.00847062845
0.0043219773
0
0
0
0
0
0
0
0
0
0
0
0
0
0
0
0
0
0
0
0
0
0
0
0
0
0
0
0
0
0
0
0
0
0
0
0
0
0
0
0
0
0
0
0
0
0
0
0
0
0
0
0
0
0
0
0
0
0
0
0
0
0
0
0
0
0
0
0
0
0
0
0
0
0
0
0.000746553674
0
0
0.00458079298
0.00533997143
0
0
0
0
0
0
0
0
0
0
0
0
0
0
0
0
0
0
0
0
0
0
0
0
0
0
0
0
0
0
0
0
0
0
0
0
0
0
0
0
0
0
0
0
0
0
0
0
0
0
0
0
0
0
0
0
0
0
0
0
0
0
0
0
0
0
0
0
0
0
0
0
0
0
0
0
0
0.00707062003
0.00407183187
0.00161582344
0
0
0
0
0
0
0
0
0
0
0
0
0
0
0
0
0
0
0
0
0
0
0
0
0
0
0
0
0
0
0
0
0
0
0
0
0
0
0
0
0
0
0
0
0
0
0
0
0
0
0
0
0
0
0
0
0
0
0
0
0
0
0
0
0
0
0
0
0
0
0
0
0
0
0
0.00184909268
0.00525070301
0
0.00940275763
0.00694317893
0
0
0
0
0
0
0
0
0
0
0
0
0
0
0
0
0
0
0
0
0
0
0
0
0
0
0
0
0
0
0
0
0
0
0
0
0
0
0
0
0
0
0
0
0
0
0
0
0
0
0
0
0
0
0
0
0
0
0
0
0
0
0
0
0
0
0
0
0
0
0
0
0
0
0
0
0
0.00118122098
0.00128064563
0.00042874887
0
0
0
0
0
0
0
0
0
0
0
0
0
0
0
0
0
0
0
0
0
0
0
0
0
0
0
0
0
0
0
0
0
0
0
0
0
0
0
0
0
0
0
0
0
0
0
0
0
0
0
0
0
0
0
0
0
0
0
0
0
0
0
0
0
0
0
0
0
0
0
0
0
0
0
0.00227330391
0.00530829285
0
0.0118166058
0.00762238463
0
0
0
0
0
0
0
0
0
0
0
0
0
0
0
0
0
0
0
0
0
0
0
0
0
0
0
0
0
0
0
0
0
0
0
0
0
0
0
0
0
0
0
0
0
0
0
0
0
0
0
0
0
0
0
0
0
0
0
0
0
0
0
0
0
0
0
0
0
0
0
0
0
0
0
0
0
0
0.00421327898
0.000672546538
0
0
0
0
0
4.43397716e-05
0
2.90976562e-05
0
0
0
0
0
0
0
0
0
0
0
0
0
0
0
0
0
0
0
0
0
0
0
0
0
0
0
0
0
0
0
0
0
0
0
0
0
0
0
0
0
0
0
0
0
0
0
0
0
0
0
0
0
0
0
0
0
0
0
0
0
0
0
0
0
0
0
0.00655365895
0.0110728834
0.0060045403
0.0108506581
0.00617746425
0
0
0
0
0
1.1136203e-05
0
0
0
0
0
0
0
0
0
0
0
0
0
0
0
0
0
0
0
0
0
0
0
0
0
0
0
0
0
0
0
0
0
0
0
0
0
0
0
0
0
0
0
0
0
0
0
0
0
0
0
0
0
0
0
0
0
0
0
0
0
0
0
0
0
0
0
0
0
0
0
0
0.00785606175
0.00185263314
0
0
0
0
0
0
0
0
0
0
0
0
0
0
0
0
0
0
0
0
0
0
0
0
0
0
0
0
0
0
0
0
0
0
0
0
0
0
0
0
0
0
0
0
0
0
0
0
0
0
0
0
0
0
0
0
0
0
0
0
0
0
0
0
0
0
0
0
0
0
0
0
0
0
0
0.0111043205
0.0111327137
0.0108648337
0.00765958822
0.00427876943
0
0
0
0
0
2.24113268e-05
0
0
0
0
0
0
0
0
0
0
0
0
0
0
0
0
0
0
0
0
0
0
0
0
0
0
0
0
0
0
0
0
0
0
0
0
0
0
0
0
0
0
0
0
0
0
0
0
0
0
0
0
0
0
0
0
0
0
0
0
0
0
0.00158295018
0
0
0
0
0
0
0
0
0
0.00802666422
0.00281300233
0
0
0
0
0
0
0
0
0
0
0
0
0
0
0
0
0
0
0
0
0
0
0
0
0
0
0
0
0
0
0
0
0
0
0
0
0
0
0
0
0
0
0
0
0
0
0
0
0
0
0
0
0
0
0
0
0
0
0
0
0
0
0
0
0
0
0
0
0
0
0
0
0
0
0
0.0114628697
0.016075744
0.00609983959
0.00470024569
0.00312631258
0
0
0
0
0
8.56549769e-05
0
8.83489442e-05
0
0
0
0
0
0
0
0
0
0
0
0
0
0
0
0
0
0
0
0
0
0
0
0
0
0
0
0
0
0
0
0
0
0
0
0
0
0
0
0
0
0
0
0
0
0
0
0
0
0
0
0
0
0
0
0
0
0
0
0
0
0.0215214351
0.00910804569
0.0143536395
0.00909182449
0
0
0
0
0
0.0109373748
0.00300259894
0
0
0
0
0
0
0
0
0
0
0
0
0
0
0
0
0
0
0
0
0
0
0
0
0
0
0
0
0
0
0
0
0
0
0
0
0
0
0
0
0
0
0
0
0
0
0
0
0
0
0
0
0
0
0
0
0
0
0
0
0
0
0
0
0
0
0
0
0
0
0
0
0
0
0.000333207113
0.00555843506
0.0166440868
0.00242657569
0.00330891687
0.00278782885
0
0
0
7.39300904e-05
0
0.000246925383
0
0.0003384714
0
0.000259855557
0
0
0
0
0
0
0
0
0
0
0
0
0
0
0
0
0
0
0
0
0
0
0
0
0
0
0
0
0
0
0
0
0
0
0
0
0
0
0
0
0
0
0
0
0
0
0
0
0
0
0
0
0
0
0
0
0
0.00354107606
0.00798841555
0.0126344817
0.00877128813
0.00953438647
0
0
0
0
0
0.00201368372
0.0107932814
0.0027308394
0
0
0
0
0
0
0
0
0
0
0
0
0
0
0
0
0
0
0
0
0
0
0
0
0
0
0
0
0
0
0
0
0
0
0
0
0
0
0
0
0
0
0
0
0
0
0
0
0
0
0
0
0
0
0
0
0
0
0
0
0
0
0
0
0
0
0
0
0
0
0
0
0
0
0
0.00785166486
0.0152899975
0.000511565198
0.00414826391
0.00286065403
0
0
0
5.32557969e-05
0
0.000198000532
0
0.000260860795
0
0.00015509846
0
0
0
0
0
0
0
0
0
0
0
0
0
0
0
0
0
0
0
0
0
0
0
0
0
0
0
0
0
0
0
0
0
0
0
0
0
0
0
0
0
0
0
0
0
0
0
0
0
0
0
0
0
0
0
0
0
0.00436210679
0.0141457287
0
0.0271847853
0
0.00278880473
0
0
0
0
0.00609526096
0.00958204979
0.00202496463
0
0
0
0
0
4.19719522e-05
0
2.8505644e-05
0
0
0
0
0
0
0
0
0
0
0
0
0
0
0
0
0
0
0
0
0
0
0
0
0
0
0
0
0
0
0
0
0
0
0
0
0
0
0
0
0
0
0
0
0
0
0
0
0
0
0
0
0
0
0
0
0
0.0231830424
0.00153456389
0.0248877843
0.0052708129
0
9.85915731e-05
0.00532019991
0
0
0
0.0127308043
0.00992000038
0.00304309337
0.00404385913
0.0030599099
0
0
0
3.69586265e-05
0
0.000166950753
0
0.000216328122
0
9.94035938e-05
0
0
0
0
0
0
0
0
0
0
0
0
0
0
0
0
0
0
0
0
0
0
0
0
0
0
0
0
0
0
0
0
0
0
0
0
0
0
0
0
0
0
0
0
0
0
0
0
0
0
0
0
0
0
0.00760413136
0
0.0373299597
0
0.0361019909
0.0182161327
0.0353018638
0.0167467079
0
0.00218673593
0
0
0
0.00783217861
0.00646517939
0.00112078036
0
0
0
3.83003885e-06
0
8.74954428e-05
0
9.92202927e-05
0
0
0
0
0
0
0
0
0
0
0
0
0
0
0
0
0
0
0
0
0
0
0
0
0
0
0
0
0
0
0
0
0
0
0
0
0
0
0
0
0
0
0
0
0
0
0
0
0
0
0
0
0
0.0999937514
0.0999946245
0.0807447529
0.0447531418
0.0574827011
0.0214458734
0.0369907224
0.0146520606
0.0390980751
0
0
0
0
0
0.014438555
0.0125895022
0
0.00644523556
0.00342812789
0
0
0
2.61625369e-05
0
0.000141583302
0
0.000176135132
0
4.4760773e-05
0
0
0
0
0
0
0
0
0
0
0
0
0
0
0
0
0
0
0
0
0
0
0
0
0
0
0
0
0
0
0
0
0
0
0
0
0
0
0
0
0
0
0
0
0
0
0
0
0
0
0
0
0.0205068888
0.0673877584
0.0539984605
0.044779848
0.0249976142
0.0270647822
0.0132900734
0.0444345429
0.0322142567
0.0362904055
0.0217169782
0.00108200844
0
0
0
0.012361693
0.00680276959
0.00021093694
0
0
0
2.18983058e-05
0
0.000126231514
0
0.00015651318
0
3.45714947e-05
0
0
0
0
0
0
0
0
0
0
0
0
0
0
0
0
0
0
0
0
0
0
0
0
0
0
0
0
0
0
0
0
0
0
0
0
0
0
0
0
0
0
0
0
0
0
0
0
0
0
0
0
0.00915152492
0.0559613078
0.0633674164
0.0738511015
0.073884369
0.0618240652
0.04909062
0.0141067972
0
0
0
0
0
0.0119964088
0.016127519
0.000295376878
0.0073399027
0.00377846937
0
0
0
0
0
8.22661554e-05
0
8.84458122e-05
0
0
0
0
0
0
0
0
0
0
0
0
0
0
0
0
0
0
0
0
0
0
0
0
0
0
0
0
0
0
0
0
0
0
0
0
0
0
0
0
0
0
0
0
0
0
0
0
0
0
0
0
0
0.0999029021
0
0.0440353496
0.0770062324
0.0980932846
0.082576026
0.0267348781
0.00162939857
0.0429124961
0.0160798903
0.0367212447
0.0225887487
0.0106512889
0
0
0.00191495881
0.0136819021
0.00710674379
0
0
0
0
7.62991262e-05
0
0.000228988738
0
0.000311539476
0
0.000249493406
0
1.10322648e-05
0
0
0
0
0
0
0
0
0
0
0
0
0
0
0
0
0
0
0
0
0
0
0
0
0
0
0
0
0
0
0
0
0
0
0
0
0
0
0
0
0
0
0
0
0
0
0
0
0.0810308045
0
0.0116696612
0.055966025
0.0946179096
0.117383008
0.0879052669