/*--------------------------------*- C++ -*----------------------------------*\
| =========                 |                                                 |
| \\      /  F ield         | OpenFOAM: The Open Source CFD Toolbox           |
|  \\    /   O peration     | Version:  v2006                                 |
|   \\  /    A nd           | Website:  www.openfoam.com                      |
|    \\/     M anipulation  |                                                 |
\*---------------------------------------------------------------------------*/
FoamFile
{
    version     2.0;
    format      ascii;
    class       volScalarField;
    location    "0.0703000019";
    object      nut;
}
// * * * * * * * * * * * * * * * * * * * * * * * * * * * * * * * * * * * * * //

dimensions      [0 2 -1 0 0 0 0];


internalField   nonuniform List<scalar> 
14400
(
6.79366591e-06
0.000414552006
0.000548398386
0.000652599811
0.000747143574
0.000839391443
0.000932767246
0.00102838191
0.00112642925
0.00122599282
0.00132577393
0.00142347734
0.00151641796
0.00160059021
0.00167127412
0.00172156074
0.00174582853
0.00173918986
0.00169621998
0.00160915647
0.001469293
0.00126531704
0.000982068735
0.000607419475
1.92043351e-05
4.89589407e-10
4.39134317e-11
9.15275273e-11
5.19046278e-12
3.44167719e-13
6.51793036e-11
3.75450227e-12
1.09058229e-11
5.98885276e-11
2.43677424e-06
3.693748e-05
5.54270217e-05
5.7639795e-06
4.59522491e-17
1.27477407e-05
5.49288118e-06
1.90486012e-05
1.42196154e-07
5.97633368e-06
2.22594646e-05
2.96391806e-07
2.79311867e-10
1.68043023e-09
1.06894879e-11
1.19081179e-13
9.5889999e-11
1.84171352e-06
9.49642386e-06
7.66923725e-06
6.05652676e-06
1.99784969e-06
3.23450065e-07
1.51926294e-07
7.60930744e-09
1.19577592e-06
1.39794881e-10
6.20145155e-07
1.52185341e-06
4.11207176e-06
2.98390575e-06
5.37750113e-06
4.60432815e-06
6.23580199e-06
6.38646426e-06
8.26340416e-06
7.95999498e-06
5.16723772e-06
5.44495852e-06
4.44776791e-06
4.75516184e-06
4.48002157e-06
4.57226331e-06
5.0203518e-06
4.70959573e-06
4.91928233e-06
3.86659846e-05
0.000759812765
0.000969811445
0.00112944924
0.00127393751
0.00141867942
0.00157293025
0.00174352647
0.0019338133
0.00214504212
0.002377226
0.00263079034
0.00290493425
0.00319825114
0.00350927807
0.00383553674
0.00417191972
0.00451213367
0.00484914671
0.00517354125
0.00547569713
0.0057424023
0.00596175899
0.00611597917
0.00618913376
0.00615910101
0.00600525163
0.00570036553
0.00522514661
0.00455518459
0.00367086255
0.00255509574
0.00112265243
3.44603175e-06
1.58258031e-08
1.91406385e-12
2.4248666e-08
4.58505269e-05
0.000105292816
9.46912225e-07
9.01453249e-06
8.77326214e-06
2.57760723e-05
1.44434827e-05
3.764395e-07
4.17855386e-05
7.93835275e-05
9.23868744e-05
0.000137400536
0.000107674901
9.91134663e-05
1.23659419e-06
1.37012968e-05
3.14319739e-05
3.88743666e-05
6.61341579e-05
8.56176654e-05
5.87309117e-05
8.79607723e-05
2.29998749e-05
4.02056791e-05
3.63763051e-06
2.0652225e-06
3.76287824e-06
4.94703395e-06
4.92781317e-06
4.30090241e-06
5.87585392e-06
3.18439398e-06
2.14553395e-06
1.57426055e-06
1.64531668e-06
3.33996956e-06
4.84178651e-06
4.79618648e-06
4.81241132e-06
5.26494816e-06
4.54733744e-06
4.88166448e-06
4.78079972e-06
3.20379463e-05
0.000715007218
0.000915018656
0.00107119762
0.00121860924
0.0013732496
0.00154396484
0.00173608824
0.00195287758
0.00219687349
0.00246964463
0.00277289849
0.00310728416
0.00347372972
0.00387176308
0.00430101113
0.00475942223
0.00524460253
0.00575238248
0.00627737339
0.00681249875
0.00734793038
0.0078724711
0.00836984054
0.00882307635
0.00920703891
0.00949716384
0.00965730124
0.00965385635
0.00943928802
0.0089710905
0.00819609548
0.00706991671
0.00557927549
0.00378295324
0.00159367682
9.84616449e-05
4.52698478e-07
7.14678395e-08
1.12026748e-05
1.71249415e-06
2.21973024e-06
3.80929111e-06
2.76413727e-12
4.22091108e-06
2.38730463e-07
5.39446208e-11
7.26035114e-12
1.19086795e-13
5.43464615e-13
1.09397192e-15
7.49951875e-13
2.94690902e-14
2.0671478e-12
4.67472208e-13
3.13359056e-12
3.00263754e-11
1.96972023e-08
2.04575409e-09
2.34214009e-06
2.98601382e-05
1.29535663e-05
1.23036544e-05
3.55130189e-06
7.26849131e-06
2.75342104e-06
5.15268318e-06
2.78459769e-06
4.29824401e-06
6.66559352e-06
4.67385544e-06
3.94144651e-06
3.92289535e-06
5.09931545e-06
4.74406153e-06
4.98769798e-06
4.49528708e-06
4.79205861e-06
4.81204021e-06
4.77293338e-06
2.45949397e-05
0.000654714419
0.000840378649
0.000987850882
0.00113053554
0.00128324696
0.00145385956
0.00164708565
0.00186603607
0.00211356381
0.00239187283
0.00270368107
0.00305085403
0.00343592343
0.00386005295
0.00432499044
0.00483057426
0.00537693055
0.0059618907
0.00658298498
0.00723532139
0.00791257855
0.00860614156
0.00930397458
0.00999214298
0.0106501938
0.0112565457
0.0117788639
0.0121849682
0.0124269467
0.0124588276
0.0122151223
0.0116346753
0.0106428861
0.00917696436
0.00720515765
0.00481653297
0.00201007026
6.27686412e-09
7.77825946e-12
7.00823514e-06
3.08798157e-08
1.60692431e-05
5.85583347e-05
4.13743598e-06
3.0938118e-05
6.31920664e-05
0.000159916104
0.000219159759
0.000222780027
0.000146600131
0.000134149508
7.54076589e-05
6.88534477e-05
7.70740816e-05
3.455075e-05
5.63027054e-05
2.23964751e-05
3.49180795e-05
9.9789975e-06
1.67619074e-09
2.33057537e-06
6.06305914e-06
4.54885922e-06
6.00486398e-06
4.22757461e-06
5.60652483e-06
2.72459766e-06
3.82528901e-06
3.74646836e-06
5.2851355e-06
1.18848248e-05
5.66155006e-06
4.95697204e-06
4.77628717e-06
4.79623248e-06
4.83314384e-06
4.95615465e-06
4.75433808e-06
4.97748541e-06
1.88817542e-05
0.000604178803
0.000778427605
0.000919438975
0.00105910632
0.00121089369
0.00138149055
0.00157489739
0.00179401374
0.00204159961
0.0023203192
0.0026331082
0.00298278588
0.00337238882
0.00380451598
0.00428175761
0.00480583307
0.00537809576
0.00599854686
0.00666636325
0.00737891319
0.00813212942
0.00891966821
0.00973280651
0.010559902
0.0113854234
0.0121899546
0.0129480268
0.0136289439
0.0141933045
0.0145947173
0.0147756649
0.0146695052
0.0141992612
0.0132774229
0.0118227551
0.00974528641
0.00702636502
0.00373654231
0.000604096523
1.35623429e-05
1.94769448e-05
3.65691938e-06
3.06648977e-09
2.69930131e-12
3.56265818e-14
4.55091235e-14
9.19099966e-12
7.69704594e-13
1.88613224e-10
4.34720684e-06
2.2415814e-07
1.41644783e-05
2.77443574e-05
5.67386894e-05
5.12473577e-05
8.11897979e-05
4.13609075e-08
8.77187818e-05
2.65154073e-06
0.000101086542
6.69023682e-05
2.38591645e-05
1.72084371e-05
8.7653887e-06
8.62234931e-06
9.59206701e-06
4.92637519e-06
6.39299748e-06
1.95166886e-06
3.20093844e-06
7.32421674e-06
7.70225418e-06
5.04469148e-06
5.0048035e-06
5.1571317e-06
4.84610564e-06
4.53954775e-06
5.1015853e-06
4.76514981e-06
1.47671962e-05
0.000558541228
0.000722691131
0.000858598358
0.000996397098
0.00114799266
0.00131896178
0.00151266768
0.00173186993
0.00197924572
0.00225784123
0.00257073471
0.00292148518
0.0033134449
0.00375037131
0.00423541695
0.00477192433
0.00536211291
0.00600802637
0.00671001636
0.00746774687
0.00827867461
0.0091388521
0.0100416856
0.0109780173
0.0119355648
0.0128975176
0.0138433422
0.0147448977
0.0155697391
0.0162734199
0.0168070051
0.017103772
0.0170937179
0.0166825544
0.0157790133
0.0142637605
0.0120509016
0.00903286348
0.00547335979
2.60343997e-07
2.16827716e-08
9.28265201e-06
3.71531076e-05
9.71047486e-05
6.45648301e-05
7.63130954e-05
0.000180762181
0.000294105177
0.000325885571
2.25041756e-05
1.47157497e-05
3.9682893e-09
7.10108742e-12
3.96617469e-12
3.90117197e-14
4.88270396e-13
1.76134704e-05
3.69504136e-11
1.11497134e-07
1.62318186e-06
2.58249053e-06
4.6965124e-06
4.67856891e-06
2.27072394e-06
3.6651961e-06
2.36201645e-06
4.39318779e-06
6.79365882e-06
5.03842772e-06
7.97767603e-06
4.25357253e-06
8.35395706e-06
4.60167346e-06
4.41031691e-06
4.77259941e-06
4.67392382e-06
5.00767057e-06
4.67122592e-06
4.82266428e-06
1.12048087e-05
0.000512088935
0.000666531094
0.000797643133
0.000933473325
0.00108415501
0.00125420454
0.00144641631
0.0016634453
0.0019079031
0.00218307112
0.00249207662
0.00283895673
0.00322718266
0.0036612951
0.0041447062
0.00468193497
0.00527566328
0.00592953684
0.00664460156
0.00742246821
0.00826151496
0.00915994015
0.0101123974
0.0111120018
0.0121483811
0.0132071791
0.0142709283
0.015314166
0.0163090831
0.0172140137
0.0179862907
0.0185617199
0.0188770908
0.0188391392
0.0183583651
0.0173106818
0.0155821499
0.0130430375
0.009626118
0.00463070839
0.000597222071
1.05354801e-05
5.58774273e-09
9.43089877e-11
2.5718248e-11
2.07637672e-05
4.19595839e-06
1.85609405e-09
1.61291594e-15
1.57596727e-05
0.000175963524
0.000153723703
0.000161145345
0.000204108063
0.000160994035
0.000217213552
3.65671328e-05
0.000173477148
2.71598378e-06
4.45013238e-05
2.7689631e-06
7.72638179e-06
7.2016784e-06
4.66998154e-06
7.22980474e-06
2.21917003e-06
6.95431685e-06
5.59224856e-06
4.10043114e-06
9.02312552e-06
4.64708903e-06
3.42566654e-06
4.30105984e-06
4.4772823e-06
5.16661278e-06
4.85570764e-06
4.58552368e-06
4.89906454e-06
4.78058409e-06
8.82482431e-06
0.000473089051
0.000619666803
0.000747770292
0.000883061089
0.00103395212
0.0012040113
0.00139572482
0.0016116061
0.00185445568
0.00212753461
0.00243438645
0.00277905557
0.00316570282
0.0035989455
0.00408325216
0.00462338705
0.00522354989
0.00588789875
0.00661943415
0.00742059524
0.0082919707
0.0092329253
0.0102402894
0.0113088479
0.0124301438
0.0135924625
0.0147798521
0.0159711567
0.0171393889
0.018249541
0.0192583713
0.0201111814
0.0207414733
0.0210681647
0.0209927132
0.0204025757
0.0191574421
0.0171201246
0.01408936
0.00986225071
0.00430168002
0.00141512272
0.000541442602
0.000258561765
0.000161011753
5.50138435e-07
7.05216819e-06
0.000308561637
0.000441878691
0.000188034313
1.12804496e-09
4.21229042e-14
1.17931493e-13
6.72256724e-15
4.64317085e-11
7.01133942e-10
1.39608754e-05
1.81823582e-07
4.13470026e-05
1.23970439e-06
6.1549657e-07
1.67336217e-06
1.62083953e-06
2.13269634e-06
2.42522921e-06
2.12716592e-06
4.83497458e-06
3.31058797e-06
9.19663551e-06
7.49175386e-06
3.24713339e-06
2.52972565e-06
4.19472788e-06
4.95044917e-06
4.24631651e-06
4.59128895e-06
5.16545105e-06
4.64522186e-06
4.72492734e-06
6.71719288e-06
0.000432435363
0.000571786281
0.000697144127
0.000831544241
0.000981587062
0.00115016952
0.00133950951
0.00155205506
0.0017907215
0.00205867429
0.00235974108
0.00269780651
0.00307750557
0.00350325711
0.00398029743
0.00451322982
0.00510741117
0.00576697059
0.00649652478
0.00729870157
0.00817611408
0.00912860038
0.0101552277
0.0112516688
0.0124116699
0.0136251844
0.014878254
0.016152811
0.0174234535
0.0186604341
0.019821295
0.0208593326
0.0217073405
0.0222948753
0.0225202874
0.0222819125
0.0214328655
0.0198378837
0.0172951339
0.0136855644
0.00876414461
0.00235946916
0.000831006655
5.294837e-06
1.93082174e-07
8.17095851e-05
0.000193972907
1.27174183e-08
2.22355542e-08
9.04216216e-08
0.000199924007
0.000224159126
0.000207799323
0.000302785275
0.000121125587
0.000268485022
7.86606772e-07
5.50856109e-05
6.71666533e-06
1.72413221e-05
3.57250365e-06
8.1823101e-07
1.98851143e-06
4.87351715e-06
3.60706511e-06
7.11077991e-06
7.5585621e-06
4.80168682e-06
7.9017181e-06
5.6261436e-06
1.95484016e-06
1.83945283e-06
4.24628429e-06
5.00750582e-06
4.26698996e-06
5.40211876e-06
4.61957996e-06
4.6874283e-06
4.88763192e-06
5.31116611e-06
0.000398386437
0.000532440437
0.00065680225
0.000791668996
0.00094211156
0.00111052482
0.00129905152
0.00151015089
0.00174685585
0.00201239737
0.00231081009
0.00264600376
0.00302296368
0.00344616561
0.00392139886
0.00445341368
0.00504841867
0.00571083535
0.00644649902
0.00725850726
0.00815104669
0.00912457695
0.010179979
0.011313673
0.0125213384
0.0137939168
0.0151195241
0.0164816435
0.0178572763
0.0192191063
0.0205275666
0.021739378
0.0227909371
0.0236157942
0.0241171745
0.0241957887
0.0237125716
0.0225238442
0.0204472624
0.0172925001
0.0128217627
0.00662075384
0.000472409769
0.000203615008
5.03725492e-05
3.98616806e-05
1.05763286e-05
0.000372765381
0.000412475178
0.000243432675
2.43338153e-07
1.10865695e-09
6.23724629e-13
1.17754492e-08
0.000100975841
1.72132554e-05
1.57183643e-05
0.000137533001
4.40675887e-07
0.000122921404
2.01441035e-05
3.20925756e-06
2.52201035e-06
4.50982701e-06
4.12919415e-06
9.05417195e-06
3.99046221e-06
4.28533763e-06
4.62346086e-06
2.80195037e-06
2.53847431e-06
3.15209785e-06
5.07298692e-06
5.27139346e-06
4.4767415e-06
4.56643998e-06
5.07620974e-06
4.88566728e-06
4.80001739e-06
3.99923239e-06
0.000359876888
0.000488273232
0.000610910705
0.000744511478
0.000893038376
0.00105848367
0.00124298348
0.00144907227
0.00167974456
0.00193843869
0.00222899564
0.00255572922
0.00292331227
0.00333689784
0.00380190682
0.00432415352
0.00490949277
0.00556391347
0.00629299519
0.00710193829
0.00799483195
0.00897461843
0.0100422674
0.0111966846
0.0124339488
0.0137470401
0.0151252399
0.0165532525
0.0180108651
0.0194707613
0.0208989038
0.0222500889
0.0234702537
0.0244881019
0.02522179
0.0255631339
0.0253943346
0.024556642
0.0228941855
0.0201799512
0.0162562007
0.0107539518
0.0031585959
0.000118978372
1.43483734e-06
6.48985347e-11
3.20595888e-06
3.74874763e-09
8.06576447e-13
7.82847455e-05
0.000216439791
0.000293409857
0.000247662668
0.000423206004
3.00964343e-10
1.34644509e-06
7.55899403e-06
2.4588224e-08
1.08105205e-05
3.42210208e-12
9.24670438e-07
1.83922841e-07
2.40861677e-06
6.11398903e-06
5.39885874e-06
1.32197025e-05
6.19232664e-06
7.68224193e-06
8.86762105e-06
1.65067339e-06
6.28004753e-06
6.06099498e-06
5.47852502e-06
4.92863552e-06
5.12761857e-06
5.18392211e-06
4.74383509e-06
4.94803286e-06
4.89979821e-06
3.31971594e-06
0.000336130151
0.000462202302
0.000586179612
0.000721497672
0.000871090765
0.00103678766
0.0012207546
0.00142558892
0.00165428678
0.00191030538
0.00219746332
0.00252007819
0.00288280869
0.00329085858
0.00374969326
0.00426531661
0.00484379583
0.00549157873
0.00621476654
0.00701944385
0.00791066078
0.00889275837
0.00996810576
0.0111374291
0.0123984513
0.0137461645
0.0151715241
0.0166613455
0.0181971115
0.0197538996
0.0212994389
0.022791445
0.0241773841
0.0253896452
0.0263467412
0.0269456978
0.0270656528
0.0265568681
0.0252493729
0.0229352323
0.0194003887
0.014286908
0.00703912064
0.00157089708
0.00026355566
0.000158108054
0.000233936751
0.000479463987
0.00049741988
0.000138178811
5.001524e-14
4.01611352e-10
4.11724258e-06
5.99124285e-08
0.000288916097
0.000381920052
5.91499574e-05
0.000228244553
4.26416112e-06
0.000179125264
1.6497626e-05
4.42595981e-06
6.94871254e-06
6.46972427e-06
8.40644579e-06
7.71935926e-06
3.17706562e-06
6.11034607e-06
2.51182505e-06
1.79726344e-06
1.09351661e-05
9.62814191e-06
5.72585204e-06
5.04075744e-06
4.99288012e-06
4.9546833e-06
4.98654336e-06
5.0376495e-06
4.94260912e-06
2.64592224e-06
0.000309601659
0.000433989983
0.000559431665
0.000696099632
0.000846193564
0.00101160356
0.00119457329
0.00139775982
0.00162421921
0.00187739561
0.00216112336
0.00247965794
0.00283766253
0.00324024644
0.00369290955
0.00420155979
0.00477238006
0.00541178469
0.00612616502
0.00692174749
0.00780417843
0.00877826365
0.00984739868
0.0110132189
0.012274934
0.013628927
0.0150680239
0.0165809595
0.0181513953
0.0197570715
0.021368167
0.0229461278
0.0244408429
0.0257897592
0.0269128268
0.0277136941
0.0280700122
0.0278402869
0.0268448199
0.0248889058
0.0217159344
0.0170810242
0.0106056302
0.0029768851
0.000294139156
1.72731798e-09
5.08898705e-05
4.57986029e-08
1.88562598e-12
7.44831767e-05
0.00025457031
0.000366976532
2.61950776e-05
0.000231895721
1.03677943e-08
1.20967361e-09
8.07840648e-11
2.09330801e-10
3.53385993e-05
8.46331024e-08
7.98766863e-06
8.7550996e-06
6.46257465e-06
6.8326679e-06
6.86200883e-06
4.08502644e-06
5.55469213e-06
5.44532293e-06
5.28603994e-06
2.17795374e-06
1.14403216e-05
1.28729713e-05
5.90027947e-06
4.87803431e-06
5.08098897e-06
4.98899e-06
4.85584221e-06
4.88018572e-06
4.99759177e-06
2.14541727e-06
0.000284155437
0.000406944458
0.000533780129
0.000671427773
0.000821678992
0.000986607512
0.00116859316
0.0013704196
0.00159524845
0.00184653801
0.00212827533
0.00244466083
0.00280059181
0.00320106829
0.00365194531
0.00415898136
0.00472887711
0.00536787561
0.00608310526
0.00688064084
0.0077671413
0.00874735756
0.00982601409
0.0110049125
0.0122849024
0.0136629431
0.0151337467
0.0166873127
0.0183093757
0.0199800366
0.0216717162
0.0233497768
0.024966458
0.0264648229
0.0277670594
0.0287832965
0.0293927747
0.0294593259
0.0288044552
0.0272316698
0.0244948416
0.0203435657
0.01448441
0.00597270333
0.00156445109
0.000264194379
3.44006178e-05
0.000867523335
0.000679535954
1.89917902e-05
1.35830246e-09
2.03904823e-06
0.000289569328
0.000500410882
0.000270375544
0.000541975251
0.000155789716
0.000314924852
9.33063636e-06
0.000129570027
4.22089717e-05
2.48926265e-05
1.1650057e-05
6.76407832e-06
6.4503257e-06
2.02656189e-06
3.83116478e-06
2.31335738e-06
1.52774293e-06
4.9585452e-06
7.56867923e-06
1.12050619e-05
5.97346613e-06
4.40864131e-06
5.25092202e-06
5.05249577e-06
5.03340309e-06
4.99196456e-06
4.81432379e-06
1.6520342e-06
0.000254664352
0.000375711615
0.000502885101
0.000639729647
0.000788095306
0.000950223597
0.00112871276
0.00132643712
0.00154660226
0.00179277086
0.00206887397
0.0023792826
0.00272878954
0.00312267739
0.00356665895
0.00406692469
0.00462999887
0.00526274231
0.00597206219
0.00676484147
0.00764744917
0.00862559222
0.00970361895
0.0108843483
0.0121682392
0.0135532567
0.0150339687
0.0166013851
0.0182418518
0.019936586
0.0216600682
0.0233790684
0.0250501041
0.0266181529
0.0280125409
0.0291459382
0.0299075528
0.0301638436
0.0297473165
0.0284630181
0.026072148
0.0223147958
0.0168897821
0.00881600545
0.00137553953
1.47090184e-05
2.45718934e-08
2.23642539e-08
6.87239121e-11
0.00010755413
0.000263963727
9.44552737e-05
5.88452942e-09
9.96375539e-11
4.36765199e-12
4.31678302e-09
2.11142042e-08
1.21309046e-08
1.79217297e-05
4.47137575e-06
1.22950207e-05
1.42454709e-05
7.46235012e-06
3.90835829e-06
5.1225409e-06
1.67395931e-06
5.40688533e-06
3.40182794e-06
4.26744548e-06
7.98206276e-06
4.16282491e-06
9.007228e-06
5.42115458e-06
4.75595675e-06
5.30008454e-06
4.98841793e-06
4.91492728e-06
4.91380563e-06
4.77578575e-06
1.35193608e-06
0.00023226596
0.000352761126
0.000480721682
0.000617257653
0.000764163811
0.000924038718
0.00109955411
0.00129365877
0.00150963041
0.0017509352
0.00202168753
0.0023260504
0.00266917223
0.0030560452
0.00349301295
0.00398593212
0.00454236445
0.00516884922
0.00587388335
0.00666409794
0.00754808957
0.00853138578
0.00962108216
0.0108197841
0.0121307717
0.0135516412
0.0150791996
0.0167041419
0.0184139058
0.0201902955
0.0220073353
0.0238346166
0.0256261261
0.0273336205
0.0288809637
0.0301939376
0.0311520517
0.0316442158
0.0314860308
0.0305172199
0.0284651041
0.0251186105
0.0200774151
0.0128325044
0.00322295237
0.000331475173
0.000456877884
0.00114869561
0.000861427102
0.000414721295
0.000117819807
0.000458980608
0.000392690717
0.000766698286
0.000370648365
0.000721540933
0.00010256087
0.000375414263
1.08896943e-05
0.000109768179
7.40302155e-06
1.20151301e-05
7.12776941e-06
4.32616934e-06
4.14062984e-06
1.6344161e-06
3.09997512e-06
1.5732951e-06
2.66537121e-06
1.06806431e-05
2.60048477e-06
5.28030632e-06
4.40419282e-06
5.37582807e-06
5.08155194e-06
4.79089304e-06
4.97312286e-06
4.93850576e-06
4.77634367e-06
1.12601504e-06
0.000213974668
0.000335765048
0.000465897092
0.000603158348
0.000749777779
0.000908579108
0.0010823243
0.00127400329
0.0014868609
0.00172430456
0.00199036389
0.00228908226
0.00262550918
0.00300447861
0.00343224863
0.00391452151
0.00445885417
0.00507171356
0.00576179818
0.00653588435
0.00740316234
0.00836968087
0.00944369878
0.0106287824
0.0119299448
0.0133459962
0.014875755
0.0165110022
0.018241093
0.0200485822
0.0219092251
0.023793195
0.0256562064
0.027450719
0.0291026964
0.030539135
0.0316430162
0.0323057727
0.0323499152
0.031619298
0.0298516959
0.0268382317
0.0221639102
0.0155940939
0.0057345761
0.00116578795
4.34457919e-08
4.56736731e-10
1.30367003e-08
2.27081563e-11
3.09869582e-12
3.51263155e-10
1.69822301e-10
8.37315656e-08
1.13100542e-09
3.86435764e-10
3.48699142e-06
6.95800343e-08
3.33887486e-05
8.98571279e-06
8.23322748e-06
9.35430539e-06
5.56519164e-06
3.94577751e-06
3.47869211e-06
2.68118474e-06
3.85836279e-06
3.16675247e-06
5.70182306e-06
6.79335928e-06
3.05353142e-06
2.97067754e-06
5.6000792e-06
5.43699404e-06
4.81206684e-06
4.63917191e-06
4.92700023e-06
4.89991792e-06
4.7792804e-06
9.49306062e-07
0.000196827349
0.000320246327
0.000452450582
0.000590722272
0.000737530554
0.00089610726
0.00106930845
0.0012602127
0.00147211717
0.00170837221
0.00197311928
0.00227021544
0.00260490525
0.00298169367
0.00340714586
0.00388646863
0.00442767815
0.00503657369
0.00572254214
0.00649155872
0.0073538682
0.0083147179
0.00938398294
0.0105646672
0.011864129
0.0132811202
0.0148174651
0.0164655539
0.0182179532
0.0200586224
0.0219660279
0.0239128537
0.0258562314
0.027752665
0.029527279
0.0311128329
0.0323884439
0.0332526794
0.0335220654
0.0330467476
0.031562312
0.0288534109
0.0245362505
0.0183933452
0.00873525322
0.00100937856
0.000618867746
0.00120479288
0.000912059677
0.0005113197
0.000428694803
0.000647827951
0.000441007009
0.000905888819
0.00048338052
0.000869186724
7.54412843e-05
0.000400212824
1.92188032e-07
1.54257927e-05
3.62152256e-06
6.94761498e-06
4.79749563e-06
5.00226426e-06
2.55691834e-06
5.08545798e-06
3.3129897e-06
3.5893991e-06
7.41431442e-06
4.69932484e-06
3.75132072e-06
1.37486106e-06
4.42264919e-06
4.74600319e-06
5.14708395e-06
4.91944694e-06
4.79911371e-06
4.86699328e-06
4.85491468e-06
7.81176381e-07
0.000174895358
0.000298977072
0.000431535277
0.000568690166
0.000713541137
0.000869572291
0.00103981329
0.00122741682
0.00143569251
0.00166808844
0.00192866263
0.00222144718
0.00255152092
0.00292367459
0.00334421341
0.00381876442
0.00435496424
0.00495918579
0.00564027599
0.00640494803
0.00726270617
0.00821970281
0.00928487692
0.0104623174
0.0117583849
0.0131731367
0.0147076923
0.0163560008
0.0181108022
0.0199577622
0.0218771491
0.0238431189
0.0258171312
0.0277561246
0.0295930559
0.0312585609
0.0326440004
0.0336406872
0.0340829249
0.0338045578
0.0325678387
0.0301259683
0.0261529306
0.0203808435
0.01155053
0.00185368856
0.00016491569
3.18177766e-08
4.54072389e-07
4.12218695e-09
1.38135705e-06
4.92172336e-08
7.40124619e-15
0.00018639609
3.62032171e-07
4.31373722e-05
1.316333e-05
0.000113280727
2.38326897e-05
6.9325856e-05
1.85170885e-05
5.84469819e-06
5.96316212e-06
3.12397042e-06
3.78880535e-06
5.22651376e-06
4.63171118e-06
7.44003501e-06
7.53370814e-06
3.51192529e-06
3.76812345e-06
9.16064422e-07
3.10210426e-06
5.19918099e-06
4.93806011e-06
4.94815491e-06
4.66375921e-06
4.83806654e-06
4.77113077e-06
6.72465192e-07
0.000157504298
0.000282431963
0.000415120037
0.000551177821
0.000694128989
0.000847726369
0.00101508078
0.00119940899
0.00140403517
0.0016323962
0.0018885908
0.00217660632
0.00250163304
0.00286840078
0.00328344197
0.00375232859
0.00428310785
0.00488212787
0.00555891691
0.0063202156
0.00717657111
0.00813420777
0.00920351549
0.0103886209
0.0116976818
0.0131306102
0.0146905095
0.0163709027
0.0181665646
0.0200626383
0.0220415372
0.0240772894
0.0261339758
0.0281691781
0.0301194699
0.0319167294
0.0334574606
0.0346334697
0.0352866782
0.0352469292
0.0342909882
0.0321490002
0.0285532648
0.023115045
0.0149217884
0.00381586289
0.00183440973
0.00101132881
0.000695421588
0.000549142129
0.000287489401
0.000683009636
0.000442979993
0.000453430657
0.000339104848
0.000619275412
6.54513035e-05
0.00015863405
3.43237931e-09
3.15794165e-05
1.15657844e-05
3.03761978e-06
4.54214338e-06
4.22697075e-06
3.83286831e-06
7.49710868e-06
5.32661008e-06
6.71974885e-06
1.21230477e-05
2.46798806e-06
3.7403851e-06
8.90509868e-07
3.3795383e-06
5.73835785e-06
4.67687396e-06
4.86374277e-06
4.66460459e-06
4.73966735e-06
4.81526807e-06
6.21776454e-07
0.000140291861
0.000266423992
0.000399267245
0.000534196694
0.000675365004
0.000826587233
0.000991198359
0.00117239475
0.00137347487
0.00159796898
0.00184974839
0.00213306522
0.00245266156
0.00281375593
0.00322217242
0.00368426184
0.00420704562
0.00479802987
0.00546534204
0.00621736882
0.00706284914
0.00801024668
0.00906777419
0.010242426
0.0115399849
0.0129637042
0.0145144802
0.0161892012
0.0179811927
0.0198782239
0.0218630223
0.0239104972
0.0259881529
0.0280516451
0.0300457102
0.0318965136
0.0335155119
0.0347842641
0.0355684168
0.0356827299
0.034937916
0.0330444211
0.029788806
0.0246445445
0.0172127575
0.00590868877
0.000531154887
0.00106761929
0.000599847525
1.15975963e-05
1.85865862e-05
4.19644744e-05
8.93479877e-07
0.000734548185
0.000179705207
0.000421947712
5.34663218e-05
0.000239807649
6.63696408e-06
4.67672635e-05
1.79923755e-05
3.84565333e-06
4.91190017e-06
5.08744063e-06
4.93289049e-06
1.00107787e-05
8.10682991e-06
9.01172334e-06
7.97099823e-06
2.92020054e-06
4.28346704e-06
1.22332342e-06
4.2138062e-06
5.62909942e-06
4.5623212e-06
4.57687559e-06
4.86530779e-06
4.95402202e-06
4.79311657e-06
6.18263566e-07
0.000122093357
0.000247975642
0.000379402495
0.000511985367
0.000650106893
0.000797889916
0.000958696974
0.00113581691
0.00133258619
0.00155253006
0.00179963502
0.0020780862
0.00239286608
0.00274906684
0.00315292082
0.00361058866
0.00412971692
0.00471754506
0.00538309256
0.00613438094
0.00698134086
0.00793194644
0.00899588593
0.0101795383
0.0114903492
0.0129309221
0.0145038144
0.0162055083
0.0180308082
0.0199678375
0.0220003314
0.0241050591
0.0262495149
0.0283936439
0.0304801774
0.0324430237
0.0341875791
0.0356084269
0.0365575207
0.0368719372
0.0363325148
0.0346920936
0.0316584315
0.0267789837
0.0196768944
0.00847985802
0.00207412647
0.000248108516
6.09595735e-06
0.000579188947
0.000451341812
0.000689840207
0.000487178783
7.03589718e-07
0.00012021575
0.000302915702
4.46848689e-06
7.78202004e-05
2.58160599e-05
5.73588467e-06
1.13855279e-05
3.67562271e-06
5.10378243e-06
6.34839582e-06
6.07627608e-06
1.28394429e-05
1.20217329e-05
9.52027212e-06
8.42430171e-06
3.63026192e-06
3.89592982e-06
1.90971013e-06
4.05349692e-06
4.86671533e-06
4.77068392e-06
4.79153752e-06
4.85003089e-06
4.71922195e-06
4.83077965e-06
6.06568108e-07
0.000106440519
0.000231958077
0.00036182621
0.000491921036
0.000626901789
0.000770938723
0.000927530782
0.0010999453
0.00129149893
0.00150572927
0.00174651377
0.00201813579
0.00232538421
0.00267357745
0.00306867347
0.00351724196
0.00402657679
0.00460457797
0.00525983566
0.0060013527
0.00683854596
0.00778071798
0.00883692839
0.0100151492
0.0113220419
0.0127618407
0.0143362292
0.0160430969
0.0178765542
0.0198258603
0.0218748694
0.0240012164
0.0261743152
0.0283546146
0.0304900334
0.0325140385
0.0343423127
0.0358667125
0.0369565323
0.0374404988
0.0371257404
0.035746244
0.0330357949
0.0285386076
0.0219421741
0.0116038823
0.00192613084
0.00143705539
0.000381535271
4.11188244e-08
7.53636872e-08
0.000202340349
3.05034066e-05
0.00080909193
0.000320097371
0.000592272185
1.24827986e-05
0.00035773342
8.84974663e-06
8.13252456e-05
5.74039113e-06
4.4965654e-06
4.90260105e-06
6.1424887e-06
8.1383971e-06
9.99549796e-06
1.0734219e-05
8.09086655e-06
4.97599691e-06
5.71551499e-06
4.27622836e-06
2.72780603e-06
5.0437524e-06
4.76574503e-06
4.74359397e-06
4.76409233e-06
4.90512964e-06
4.89140946e-06
4.76924645e-06
5.46536938e-07
9.10810044e-05
0.000215495131
0.000343331633
0.000470767306
0.000602452586
0.000742743982
0.000895167724
0.00106303581
0.00124966787
0.0014585899
0.0016937076
0.00195926297
0.0022601373
0.00260159322
0.00298977869
0.00343120593
0.00393350158
0.00450452254
0.00515339217
0.00588910298
0.00672186391
0.00766101222
0.0087166841
0.00989691947
0.0112096801
0.0126592612
0.0142486346
0.0159757236
0.0178357277
0.0198179607
0.0219071673
0.0240814677
0.0263108987
0.0285575129
0.0307690143
0.032882981
0.0348131163
0.0364600562
0.0376872426
0.0383393709
0.0382104776
0.0370570849
0.0345778577
0.030354244
0.0240648592
0.0146085554
0.00332891743
0.000867773214
0.00116001727
0.000710268114
0.000514307184
0.000114577463
0.000115063161
4.34161033e-05
9.10666806e-06
0.000182906254
0.000130244816
0.000120855163
3.18080833e-05
1.36532536e-05
1.88371099e-06
1.11440653e-06
2.93447584e-06
6.04936335e-06
8.69649347e-06
9.75565947e-06
1.26203033e-05
7.47910087e-06
5.16628545e-06
7.04258298e-06
3.91683404e-06
3.92676389e-06
4.7145657e-06
4.68791305e-06
5.18785873e-06
5.04382056e-06
4.93071956e-06
4.79916079e-06
4.83482976e-06
4.81161324e-07
7.56392019e-05
0.000197244256
0.000322026245
0.000445920966
0.000573480619
0.000709077977
0.000856345685
0.00101858715
0.00119912177
0.00140147368
0.00162949676
0.00188748537
0.00218022909
0.00251313218
0.00289221886
0.00332427193
0.00381676783
0.00437801461
0.00501696262
0.00574330007
0.00656703951
0.00749853645
0.00854766507
0.00972379294
0.011034517
0.0124856797
0.0140798014
0.0158164046
0.0176903507
0.0196924534
0.0218076935
0.0240153812
0.0262870733
0.0285852189
0.0308611421
0.0330512015
0.0350757303
0.0368317002
0.0381931903
0.0389997915
0.0390576648
0.0381234948
0.0359057294
0.0320303703
0.026143273
0.0172236041
0.00554743799
0.00060557725
0.000400760765
0.000266566038
4.35384231e-06
0.000783642911
0.000527229097
0.000791839357
0.000445764925
0.000549608895
3.18673689e-05
0.00025061109
1.78679326e-05
4.33526035e-05
3.72259604e-06
1.37403501e-06
3.58881361e-06
4.56015631e-06
9.9831827e-06
5.78543866e-06
9.19657597e-06
5.0572818e-06
2.58061757e-06
8.21935249e-06
4.66431902e-06
6.28843466e-06
4.40707954e-06
4.63307988e-06
4.9554982e-06
4.85632849e-06
4.81462231e-06
4.88702703e-06
4.79484596e-06
4.16424628e-07
6.10081437e-05
0.000178804807
0.00030017473
0.000420574368
0.000544071195
0.000675146624
0.000817450954
0.00097434123
0.00114913129
0.00134533998
0.00156684284
0.00181789649
0.00210337694
0.00242863077
0.00279986776
0.00322380323
0.00370824234
0.00426142781
0.00489283676
0.005612101
0.00643000668
0.00735687126
0.00840358457
0.00957954462
0.0108935408
0.0123513862
0.0139569376
0.0157095293
0.017605401
0.0196353637
0.0217857698
0.0240367472
0.0263612054
0.0287238706
0.0310773073
0.0333621764
0.0354997899
0.0373936329
0.038918296
0.0399200847
0.040205744
0.039532352
0.0376142283
0.0340663437
0.0285478833
0.020423516
0.00851542722
0.00188501617