/*--------------------------------*- C++ -*----------------------------------*\
| =========                 |                                                 |
| \\      /  F ield         | OpenFOAM: The Open Source CFD Toolbox           |
|  \\    /   O peration     | Version:  v2006                                 |
|   \\  /    A nd           | Website:  www.openfoam.com                      |
|    \\/     M anipulation  |                                                 |
\*---------------------------------------------------------------------------*/
FoamFile
{
    version     2.0;
    format      ascii;
    class       volScalarField;
    location    "0.0703000019";
    object      nuTilda;
}
// * * * * * * * * * * * * * * * * * * * * * * * * * * * * * * * * * * * * * //

dimensions      [0 2 -1 0 0 0 0];


internalField   nonuniform List<scalar> 
14400
(
8.60171358e-05
0.000447603136
0.000569214992
0.000667698579
0.000758700972
0.000848555018
0.000940104446
0.00103439301
0.00113135006
0.00123012519
0.00132922893
0.00142645907
0.00151897749
0.00160287688
0.00167331081
0.0017234718
0.00174762788
0.001740995
0.00169805264
0.00161118288
0.0014716339
0.00126845156
0.000987041773
0.000619793996
0.000102440717
6.85604731e-06
3.69734484e-06
4.43624302e-06
2.1525895e-06
1.0952031e-06
4.06161973e-06
2.00515922e-06
2.61895788e-06
4.06287879e-06
5.81306093e-05
0.000124378192
0.000141574681
7.25756373e-05
1.19283939e-07
9.03163483e-05
7.14639913e-05
0.000101380645
2.81481733e-05
7.349223e-05
0.000105590108
3.40347736e-05
5.9164768e-06
9.32235202e-06
2.61913673e-06
8.55770537e-07
4.5353651e-06
5.41355907e-05
8.29676833e-05
7.86751857e-05
7.35216312e-05
5.52952962e-05
3.46971849e-05
2.88136897e-05
1.35639749e-05
4.85045342e-05
4.99524369e-06
4.10832952e-05
5.14475729e-05
6.67518688e-05
6.12254538e-05
7.16679423e-05
6.86175221e-05
7.45651914e-05
7.48712464e-05
8.04000022e-05
7.94994146e-05
7.07604167e-05
7.1956118e-05
6.8434093e-05
6.94175459e-05
6.851412e-05
6.85249656e-05
7.00246136e-05
6.91050413e-05
6.97595773e-05
0.000141752046
0.000772110085
0.000977452907
0.00113509802
0.00127833151
0.00142222824
0.00157576678
0.00174584572
0.0019356543
0.00214655075
0.00237841833
0.00263177559
0.00290571405
0.0031989045
0.00350979874
0.00383598081
0.00417227779
0.00451244637
0.00484940353
0.00517377216
0.00547589155
0.00574258339
0.00596191655
0.00611613252
0.00618927336
0.00615924521
0.00600539225
0.00570052498
0.00522532199
0.0045554205
0.00367119846
0.00255580705
0.00112604925
6.33190324e-05
1.61637711e-05
1.72207494e-06
1.81254021e-05
0.000134404519
0.000181994635
4.6020597e-05
8.18476128e-05
8.19579822e-05
0.000110613803
9.41781873e-05
3.60135236e-05
0.000129971869
0.000162103376
0.000173743578
0.000206525969
0.000185457618
0.000177590411
4.91622167e-05
9.19285105e-05
0.000118455387
0.00012575575
0.000152288062
0.000167182458
0.000145820221
0.000169122589
0.000107664057
0.000127334288
6.48544911e-05
5.56968765e-05
6.54100925e-05
6.99671274e-05
7.01809052e-05
6.74810193e-05
7.3503897e-05
6.24266738e-05
5.65164251e-05
5.21094301e-05
5.2915038e-05
6.32581172e-05
6.9589036e-05
6.93342555e-05
6.96862951e-05
7.15837948e-05
6.84978556e-05
6.96975477e-05
6.91955091e-05
0.000133934764
0.000728874856
0.000923642284
0.00107752268
0.00122345748
0.00137707815
0.00154694702
0.00173845969
0.00195471167
0.00219833597
0.00247077056
0.00277380337
0.00310798126
0.00347429717
0.00387220246
0.00430137478
0.00475970627
0.0052448423
0.00575257204
0.00627753705
0.00681263017
0.0073480468
0.00787256647
0.00836992763
0.00882314963
0.00920710841
0.00949722457
0.00965736186
0.00965391243
0.00943934847
0.00897115205
0.00819617135
0.00707001013
0.00557942976
0.00378326218
0.00159547991
0.000176694582
3.80304596e-05
2.3755711e-05
8.75299337e-05
5.29538022e-05
5.70689898e-05
6.49566136e-05
1.89073704e-06
6.67405418e-05
3.24139002e-05
3.93369255e-06
2.40153926e-06
8.52586167e-07
1.25609193e-06
2.64000213e-07
1.36166812e-06
6.0164916e-07
1.75465153e-06
1.20058307e-06
1.94686099e-06
3.39832175e-06
1.73401057e-05
9.77096561e-06
5.78380543e-05
0.000115778579
9.11630625e-05
8.93941712e-05
6.43595846e-05
7.74440654e-05
6.02023923e-05
7.07214948e-05
6.03559156e-05
6.74989193e-05
7.59398812e-05
6.91123522e-05
6.61652368e-05
6.59648039e-05
7.08377506e-05
6.95871384e-05
7.02031405e-05
6.83025014e-05
6.94363061e-05
6.95890356e-05
6.93093189e-05
0.000123498924
0.000670868478
0.000850448026
0.000995199374
0.00113611446
0.00128759376
0.00145719939
0.00164970281
0.00186803438
0.00211513572
0.00239306877
0.00270462941
0.00305157568
0.00343650233
0.00386049493
0.00432535015
0.00483085058
0.00537715933
0.00596206804
0.00658313472
0.00723543889
0.00791268
0.00860622241
0.00930404618
0.00999220119
0.0106502469
0.01125659
0.0117789059
0.0121850046
0.012426983
0.012458861
0.0122151582
0.0116347116
0.0106429309
0.0091770195
0.00720525004
0.00481672269
0.00201120132
1.28519973e-05
2.43955265e-06
7.62015921e-05
1.93637223e-05
9.59382753e-05
0.000145224635
6.63927953e-05
0.000117512775
0.000148194857
0.000224501318
0.000268664206
0.000272847941
0.000213100331
0.00020503075
0.000158566791
0.000154183894
0.000160022064
0.000121661262
0.000142440563
0.000106457389
0.00012140186
8.45656918e-05
9.28999404e-06
5.75632519e-05
7.36709615e-05
6.85192738e-05
7.35367662e-05
6.72108533e-05
7.22831785e-05
5.99383215e-05
6.53949361e-05
6.51112681e-05
7.1219168e-05
8.85674832e-05
7.24605163e-05
6.99291974e-05
6.91370321e-05
6.93227459e-05
6.94858439e-05
6.98350931e-05
6.89075404e-05
6.96877184e-05
0.000114954473
0.000623155762
0.000790300321
0.000928034548
0.00106558673
0.00121585137
0.00138527663
0.00157780447
0.00179623317
0.00204330912
0.00232162723
0.00263412176
0.00298356496
0.00337299738
0.00380498675
0.00428212897
0.00480612276
0.00537832702
0.0059987292
0.00666651089
0.00737903116
0.00813222656
0.00891974709
0.00973287275
0.0105599569
0.0113854706
0.0121899946
0.0129480621
0.0136289748
0.0141933329
0.0145947433
0.01477569
0.0146695298
0.0141992872
0.0132774514
0.0118227906
0.00974533639
0.00702645999
0.00373686422
0.000615720488
9.18757632e-05
0.000102050811
6.4429853e-05
1.08520584e-05
1.86262913e-06
6.33069477e-07
6.72516823e-07
2.5344113e-06
1.36361625e-06
5.38878068e-06
6.75078498e-05
3.16950981e-05
9.29974972e-05
0.000113300301
0.000143263617
0.000138281627
0.00016386549
2.07990556e-05
0.000169186349
5.95264631e-05
0.000179662236
0.000152438052
0.000108400118
9.86052629e-05
8.16230509e-05
8.13366984e-05
8.36715495e-05
7.0072363e-05
7.50115766e-05
5.5105421e-05
6.25414635e-05
7.8165896e-05
7.8864481e-05
7.04134527e-05
7.01623833e-05
7.05581893e-05
6.93517915e-05
6.84214846e-05
7.05343802e-05
6.9073502e-05
0.000107262907
0.00058026784
0.000736330616
0.000868385696
0.00100370654
0.00115348587
0.00132312423
0.00151580701
0.00173426259
0.00198105679
0.00225923212
0.00257179262
0.00292230462
0.00331407156
0.00375086123
0.00423579394
0.00477222215
0.00536234385
0.00600821106
0.00671016098
0.00746786421
0.00827876762
0.00913892888
0.0100417474
0.0109780693
0.0119356074
0.0128975543
0.013843373
0.014744925
0.0155697627
0.0162734416
0.0168070246
0.0171037909
0.0170937359
0.0166825733
0.0157790334
0.014263785
0.0120509342
0.00903292132
0.0054735102
3.28993525e-05
1.76655742e-05
8.27605796e-05
0.000123986488
0.000176700448
0.000149715802
0.000160034353
0.00023947793
0.000330796572
0.000357786706
0.000106537798
9.40740253e-05
1.15744346e-05
2.37571406e-06
2.05786433e-06
6.46865848e-07
1.22008713e-06
9.89706217e-05
3.59406926e-06
2.66414838e-05
5.24702426e-05
5.90958195e-05
6.91145368e-05
6.90738656e-05
5.72196589e-05
6.48715874e-05
5.77879827e-05
6.81161753e-05
7.61602043e-05
7.06401294e-05
7.93747689e-05
6.72470517e-05
8.02391854e-05
6.90522998e-05
6.80764472e-05
6.95373538e-05
6.90352983e-05
7.01989588e-05
6.8812339e-05
6.93529022e-05
9.9564588e-05
0.000537348487
0.000682453468
0.000808962762
0.000941833801
0.00109033325
0.00125884665
0.00144986453
0.00166606748
0.00190986048
0.00218457847
0.00249320674
0.00283983766
0.00322784552
0.00366181796
0.00414510104
0.0046822503
0.00527590248
0.0059297305
0.00664474939
0.00742258979
0.00826160859
0.00916001856
0.0101124585
0.0111120541
0.0121484223
0.0132072152
0.0142709575
0.0153141921
0.0163091047
0.0172140338
0.0179863079
0.0185617366
0.0188771058
0.0188391547
0.0183583802
0.0173106993
0.0155821697
0.0130430666
0.00962616702
0.00463092542
0.000608904817
8.6033707e-05
1.25292507e-05
4.55175292e-06
3.27204582e-06
0.000104206274
6.67388266e-05
9.57573887e-06
2.90751076e-07
9.61958921e-05
0.000235615566
0.000219615105
0.000224471659
0.000257973558
0.000224435264
0.000268144929
0.000123509449
0.000234475692
5.98183231e-05
0.000132061449
6.01681203e-05
7.89081581e-05
7.74785339e-05
6.89628334e-05
7.76978209e-05
5.67730169e-05
7.70011378e-05
7.22073755e-05
6.69771449e-05
8.21654085e-05
6.93317463e-05
6.37777198e-05
6.77328364e-05
6.82105645e-05
7.08560118e-05
6.98399353e-05
6.90022021e-05
7.01592713e-05
6.95375625e-05
9.31417563e-05
0.000501558768
0.000637653532
0.000760454729
0.000892269884
0.00104068869
0.00120898619
0.00139940931
0.00161436436
0.00185652174
0.00212910021
0.00243556996
0.00277996147
0.00316639265
0.00359947816
0.00408366043
0.00462370501
0.00522379529
0.00588809169
0.00661958432
0.00742071464
0.00829206462
0.00923300101
0.0102403498
0.0113088973
0.0124301838
0.0135924959
0.0147798798
0.0159711803
0.0171394089
0.0182495586
0.0192583866
0.0201111954
0.020741486
0.021068177
0.0209927251
0.0204025882
0.0191574557
0.0171201414
0.0140893838
0.00986229846
0.00430192143
0.00141733368
0.000555495113
0.000300826751
0.000224256754
3.97149274e-05
7.65802695e-05
0.000342888972
0.000461868187
0.000245261449
8.42419806e-06
6.59138976e-07
8.51939272e-07
4.16619745e-07
3.79719587e-06
7.48999863e-06
9.26724676e-05
3.00711025e-05
0.000128551126
4.88086949e-05
4.09456584e-05
5.27015159e-05
5.24135937e-05
5.60927955e-05
5.81738648e-05
5.60424889e-05
6.96901855e-05
6.27996858e-05
8.282482e-05
7.78439348e-05
6.26328041e-05
5.85797329e-05
6.73223255e-05
7.04609916e-05
6.76344783e-05
6.85845079e-05
7.07520035e-05
6.88598396e-05
6.92730536e-05
8.6599885e-05
0.000465095428
0.000592474929
0.000711600217
0.000841858383
0.000989059537
0.00115560083
0.00134352426
0.00155501849
0.00179295106
0.0020603393
0.00236101142
0.00269876281
0.00307824342
0.00350381578
0.00398073276
0.00451356109
0.00510767186
0.00576717008
0.00649668349
0.00729882389
0.00817621267
0.00912867708
0.0101552905
0.0112517182
0.0124117111
0.0136252174
0.0148782821
0.0161528338
0.0174234735
0.0186604508
0.01982131
0.0208593455
0.0217073526
0.0222948861
0.0225202982
0.022281923
0.0214328769
0.0198378962
0.0172951505
0.0136855892
0.00876420521
0.00236027019
0.000837369859
7.10170245e-05
3.06345974e-05
0.000163789247
0.000250238708
1.5375491e-05
1.78078488e-05
2.51339523e-05
0.000254700833
0.000272832482
0.000260753572
0.000337584555
0.000194911678
0.000308793406
4.35435472e-05
0.000141582715
7.58666634e-05
9.8312321e-05
6.42027954e-05
4.39647822e-05
5.51608754e-05
6.96393287e-05
6.43427243e-05
7.70382942e-05
7.82458175e-05
6.94047751e-05
7.91841046e-05
7.24527889e-05
5.50400915e-05
5.41499913e-05
6.71590845e-05
7.00393902e-05
6.73975854e-05
7.17021169e-05
6.89874849e-05
6.90311585e-05
6.97470305e-05
8.11683971e-05
0.000434801187
0.000555537584
0.000672742906
0.000802852856
0.000950116886
0.0011162698
0.00130327534
0.00151323911
0.00174917747
0.00201411622
0.00231212429
0.00264698408
0.00302372319
0.00344673472
0.00392184481
0.00445374894
0.00504868427
0.00571103575
0.00644665966
0.00725862907
0.00815114567
0.00912465255
0.0101800414
0.0113137212
0.0125213789
0.0137939485
0.0151195513
0.0164816652
0.0178572953
0.0192191217
0.0205275806
0.0217393897
0.0227909481
0.0236158038
0.024117184
0.0241957975
0.023712581
0.0225238538
0.0204472744
0.0172925156
0.0128217915
0.00662085376
0.000490390016
0.000256038232
0.000137270503
0.000126282648
8.55618999e-05
0.000398641895
0.000434874499
0.000288174772
3.23146725e-05
8.35917351e-06
1.2904641e-06
1.50979606e-05
0.000179046275
9.80440325e-05
9.56396505e-05
0.00020648937
3.74932018e-05
0.000195558522
0.000102570863
6.22202775e-05
5.83815103e-05
6.80454827e-05
6.63388515e-05
8.20494672e-05
6.57527274e-05
6.7260547e-05
6.83939592e-05
6.01615498e-05
5.86090011e-05
6.19145484e-05
7.02604021e-05
7.10486899e-05
6.83325014e-05
6.80673977e-05
7.01451427e-05
6.9536899e-05
6.92576198e-05
7.51394458e-05
0.000401235648
0.000514626716
0.000628832853
0.000756943775
0.000901790972
0.0010647473
0.00124752287
0.0014524072
0.00168221389
0.0019402863
0.00223038324
0.00255678031
0.00292410914
0.00333750679
0.00380237168
0.00432451133
0.00490976761
0.00556412655
0.00629315996
0.00710206711
0.0079949324
0.0089746978
0.0100423299
0.0111967347
0.0124339889
0.0137470727
0.0151252664
0.0165532745
0.0180108833
0.0194707769
0.020898917
0.0222501005
0.0234702638
0.0244881111
0.0252217985
0.025563142
0.0253943426
0.0245566505
0.0228941949
0.0201799631
0.0162562184
0.0107539912
0.00315903921
0.000192559236
5.04686593e-05
4.10962211e-06
6.21425639e-05
1.13078083e-05
1.37137649e-06
0.000160667991
0.000266607188
0.000329341138
0.000291625324
0.00044433519
6.03330132e-06
4.9628283e-05
7.78783908e-05
1.81434181e-05
8.58614703e-05
1.9703275e-06
4.51242569e-05
3.00387815e-05
5.76448912e-05
7.35572844e-05
7.11542746e-05
9.07527717e-05
7.37764172e-05
7.81535485e-05
8.12707525e-05
5.22874335e-05
7.40518244e-05
7.33280694e-05
7.13274558e-05
6.93471651e-05
7.03232602e-05
7.04000513e-05
6.89409205e-05
6.94722351e-05
6.93907379e-05
7.15619127e-05
0.000381093639
0.000490858209
0.000605381614
0.000734625688
0.000880231454
0.00104328137
0.00122543601
0.00142901791
0.00165681937
0.00191219865
0.00219888331
0.00252115396
0.00288362352
0.00329148159
0.00375016839
0.00426568253
0.00484407648
0.00549179636
0.00621493445
0.00701957506
0.00791076276
0.00889283882
0.00996816889
0.0111374795
0.0123984914
0.013746197
0.0151715503
0.0166613672
0.0181971293
0.0197539147
0.0212994516
0.022791456
0.0241773937
0.0253896539
0.026346749
0.0269457052
0.0270656599
0.0265568753
0.0252493807
0.0229352415
0.0194004012
0.0142869304
0.00703921025
0.00157265299
0.000304596683
0.000221651573
0.000280358844
0.000496706059
0.000513518026
0.000206867832
6.84230073e-07
6.4783685e-06
6.62252109e-05
2.2663818e-05
0.000325603553
0.000406829598
0.000144678683
0.000275820711
6.68451831e-05
0.000237470704
9.66378896e-05
6.7380327e-05
7.60778044e-05
7.44626813e-05
8.00581004e-05
7.80177788e-05
6.18817494e-05
7.32998562e-05
5.82456862e-05
5.34251613e-05
8.63047662e-05
8.32670432e-05
7.20768187e-05
6.97020785e-05
6.96286692e-05
6.89813174e-05
6.94920582e-05
6.95430507e-05
6.94533565e-05
6.77489338e-05
0.000359626002
0.000465911774
0.000580516069
0.000710307772
0.000855988392
0.00101850667
0.00119952872
0.00140137294
0.00162688441
0.00187938153
0.00216261344
0.00248078356
0.00283851638
0.00324089737
0.00369340709
0.00420194173
0.00477267384
0.00541201163
0.00612634068
0.00692188412
0.00780428499
0.00877834725
0.00984746451
0.0110132711
0.0122749756
0.0136289605
0.015068051
0.0165809817
0.0181514136
0.0197570867
0.0213681799
0.0229461388
0.0244408525
0.0257897676
0.0269128344
0.0277137012
0.0280700189
0.0278402937
0.026844827
0.0248889139
0.0217159447
0.0170810403
0.0106056707
0.0029773884
0.000330386275
9.3444247e-06
0.000137839304
2.11890685e-05
1.70389345e-06
0.00015780504
0.000297674106
0.000393557934
0.000111199207
0.000279022105
1.46652151e-05
8.54480689e-06
4.35898041e-06
5.51515173e-06
0.00012200088
2.47554601e-05
7.92440001e-05
8.11286912e-05
7.47858321e-05
7.58347768e-05
7.59411232e-05
6.61246142e-05
7.17061822e-05
7.12874965e-05
7.07947764e-05
5.60726488e-05
8.71324054e-05
9.00161102e-05
7.30328699e-05
6.91315569e-05
7.00626076e-05
6.95481853e-05
6.92702685e-05
6.89611024e-05
6.95889556e-05
6.39540335e-05
0.000338410904
0.000441549682
0.000556291462
0.000686365943
0.000831887638
0.00099373251
0.00117369559
0.00137411078
0.00159797467
0.00184855313
0.0021297931
0.00244579694
0.00280145871
0.00320172216
0.00365244899
0.00415936323
0.00472917365
0.00536810143
0.00608328201
0.00688077612
0.00776724814
0.00874743988
0.00982607981
0.0110049636
0.0122849437
0.0136629756
0.0151337735
0.016687334
0.0183093936
0.0199800512
0.0216717287
0.0233497872
0.0249664672
0.0264648308
0.0277670666
0.028783303
0.0293927808
0.0294593318
0.0288044614
0.0272316764
0.0244948497
0.0203435769
0.0144844319
0.00597282563
0.00156626333
0.000304621869
0.000120832913
0.000873190071
0.000688738194
0.000100550161
8.80571975e-06
5.51311247e-05
0.000326396979
0.000516262381
0.000310400472
0.000555736287
0.000220296756
0.000347661565
8.25709177e-05
0.000200200022
0.000128978685
0.000109011199
8.76925728e-05
7.55480777e-05
7.46165521e-05
5.51291609e-05
6.50230637e-05
5.70555621e-05
5.1330098e-05
6.97245115e-05
7.83393515e-05
8.69956881e-05
7.33384082e-05
6.70921365e-05
7.07279412e-05
6.98549232e-05
6.98460849e-05
6.97652002e-05
6.93198987e-05
5.97000701e-05
0.000314668039
0.000414139505
0.000527548938
0.000655926527
0.000799052622
0.000957842797
0.00113412899
0.00133035653
0.00154947624
0.00179490139
0.00207046551
0.00238047982
0.00272969417
0.00312336429
0.00356718197
0.00406732453
0.00463030517
0.00526297788
0.00597224373
0.00676498201
0.00764755826
0.00862567736
0.00970368564
0.0108844009
0.0121682809
0.0135532901
0.0150339955
0.0166014068
0.0182418696
0.0199366008
0.0216600806
0.0233790789
0.0250501131
0.0266181608
0.0280125479
0.0291459446
0.0299075588
0.0301638493
0.0297473223
0.0284630242
0.0260721551
0.0223148053
0.0168897982
0.0088160628
0.00137784119
9.33980923e-05
1.81295428e-05
1.76581029e-05
4.16855269e-06
0.00018324519
0.000304921767
0.000173246717
1.26894926e-05
4.56106465e-06
2.09492081e-06
1.17124636e-05
1.74772478e-05
1.51648623e-05
9.92036874e-05
6.76114571e-05
8.92023846e-05
9.2589918e-05
7.78258035e-05
6.52782637e-05
7.04496701e-05
5.24356638e-05
7.15269944e-05
6.29521701e-05
6.7206912e-05
7.8765746e-05
6.637849e-05
8.12502842e-05
7.13684116e-05
6.8947332e-05
7.11318119e-05
7.00736747e-05
6.95252528e-05
6.94891946e-05
6.92122657e-05
5.64351453e-05
0.00029639072
0.000393810688
0.00050677241
0.000634157616
0.000775557408
0.000931892522
0.00110515387
0.0012976741
0.00151259691
0.00175310927
0.00202333008
0.00232726799
0.00267010599
0.00305674129
0.00349355265
0.00398633553
0.00454268012
0.00516908555
0.00587406993
0.0066642379
0.00754820116
0.00853146978
0.00962114993
0.0108198355
0.0121308137
0.0135516733
0.0150792264
0.0167041626
0.0184139234
0.0201903093
0.0220073474
0.0238346263
0.0256261349
0.0273336277
0.0288809704
0.0301939433
0.0311520573
0.0316442208
0.031486036
0.0305172251
0.0284651103
0.0251186177
0.0200774267
0.0128325306
0.0032233787
0.000361044681
0.000475557253
0.00115186921
0.00086724651
0.000435860509
0.000191552075
0.00047689316
0.000416597734
0.000773691415
0.000396738234
0.000729417845
0.000179889496
0.000400239946
8.59683103e-05
0.00018438853
7.74102244e-05
8.78628814e-05
7.66307137e-05
6.67990647e-05
6.63843645e-05
5.19940287e-05
6.15707647e-05
5.15328489e-05
5.9192094e-05
8.55803469e-05
5.8881042e-05
7.06914028e-05
6.74212231e-05
7.08875458e-05
7.01177414e-05
6.91954634e-05
6.98446005e-05
6.98491648e-05
6.94806433e-05
5.40629397e-05
0.000282847135
0.000379849666
0.00049356042
0.000620955461
0.000761717721
0.000916781701
0.00108816658
0.00127818667
0.00148995389
0.00172656967
0.00199207831
0.00229035238
0.00262648567
0.00300520601
0.00343281431
0.00391494387
0.00445918575
0.0050719614
0.00576199449
0.00653603123
0.00740327981
0.00836976897
0.00944377004
0.0106288361
0.0119299888
0.0133460296
0.0148757829
0.0165110236
0.0182411112
0.0200485964
0.0219092375
0.0237932048
0.0256562152
0.0274507262
0.0291027031
0.0305391407
0.0316430217
0.0323057776
0.0323499203
0.0316193029
0.0298517016
0.0268382381
0.02216392
0.015594112
0.00573471289
0.0011689228
2.09717878e-05
6.65250826e-06
1.55147847e-05
3.14375422e-06
1.92601154e-06
6.23389149e-06
5.24194139e-06
2.45216318e-05
8.41830874e-06
6.39180352e-06
6.35800023e-05
2.34397142e-05
0.000119631431
8.1278902e-05
7.97758705e-05
8.22132723e-05
7.17665566e-05
6.53255956e-05
6.33655489e-05
5.90733349e-05
6.50699462e-05
6.16538498e-05
7.21561987e-05
7.52291305e-05
6.10936741e-05
6.0464764e-05
7.1852211e-05
7.15242428e-05
6.93918893e-05
6.86192528e-05
6.96102621e-05
6.94532676e-05
6.93271542e-05
5.17420882e-05
0.000269691273
0.000366769747
0.000481322964
0.000609097799
0.000749811674
0.00090448023
0.00107528076
0.00126445548
0.00147527049
0.00171065936
0.00197486523
0.0022714935
0.00260589946
0.00298242355
0.00340772201
0.00388689142
0.00442801613
0.00503682125
0.00572274245
0.00649170517
0.00735398819
0.00831480556
0.00938405578
0.0105647205
0.011864174
0.0132811533
0.0148174936
0.016465575
0.0182179717
0.0200586362
0.0219660404
0.0239128632
0.0258562402
0.0277526718
0.0295272857
0.0311128382
0.0323884493
0.0332526839
0.0335220702
0.033046752
0.0315623172
0.0288534164
0.0245362587
0.018393358
0.00873531349
0.00101344715
0.000629958783
0.00120767444
0.000917347585
0.000526235098
0.000449796407
0.000657510479
0.000461070027
0.000910993111
0.00050053644
0.000874742241
0.000158840045
0.000422830266
3.03834603e-05
9.44081673e-05
6.40507491e-05
7.58640925e-05
6.88502747e-05
6.95818257e-05
5.83570808e-05
6.99590554e-05
6.23476527e-05
6.39087451e-05
7.7159166e-05
6.88374685e-05
6.47377335e-05
5.00968464e-05
6.76710275e-05
6.86988173e-05
7.05188274e-05
6.96262666e-05
6.94012409e-05
6.95996505e-05
6.97986205e-05
4.91671668e-05
0.000252880734
0.000349036086
0.000462369072
0.000588218517
0.000726502253
0.000878402577
0.00104606921
0.00123187195
0.00143897712
0.00167048287
0.00193047227
0.00222278182
0.00255254645
0.00292443492
0.00334480481
0.00381920376
0.00435530946
0.00495944241
0.00564047957
0.00640509947
0.00726282753
0.00821979326
0.00928495026
0.0104623723
0.01175843
0.0131731707
0.0147077207
0.0163560224
0.0181108206
0.0199577764
0.0218771615
0.0238431286
0.0258171399
0.0277561316
0.0295930624
0.0312585662
0.0326440056
0.0336406917
0.0340829295
0.033804562
0.0325678435
0.0301259735
0.0261529376
0.0203808541
0.0115505641
0.00185493165
0.000226821105
1.92131771e-05
3.76832889e-05
1.15330856e-05
4.99815036e-05
2.14513362e-05
4.24246902e-07
0.000242619297
3.55934199e-05
0.000129292983
9.05771183e-05
0.000187594364
0.00010753799
0.000153024725
9.97972347e-05
7.24833694e-05
7.29236047e-05
6.15153102e-05
6.4669525e-05
7.04018713e-05
6.8142947e-05
7.73795524e-05
7.76263042e-05
6.32590607e-05
6.46175403e-05
4.48734802e-05
6.16537062e-05
7.08597333e-05
7.01103945e-05
6.97666365e-05
6.87197341e-05
6.94923539e-05
6.94437688e-05
4.71200468e-05
0.000239063234
0.000334925306
0.000447267629
0.00057142411
0.000707527491
0.000856821583
0.00102152188
0.00120398074
0.00140740955
0.00163484652
0.00189044687
0.0021779686
0.00250268318
0.00286917469
0.00328404639
0.00375277432
0.00428345977
0.00488238718
0.00555912375
0.00632036788
0.00717669389
0.00813429819
0.00920358929
0.0103886754
0.0116977269
0.0131306437
0.0146905377
0.0163709239
0.0181665828
0.0200626521
0.0220415493
0.0240772987
0.0261339842
0.0281691847
0.0301194761
0.0319167344
0.0334574655
0.0346334739
0.0352866825
0.035246933
0.0342909925
0.0321490046
0.0285532707
0.0231150531
0.0149218089
0.00381614956
0.00183570348
0.00101535551
0.000704108883
0.000562083693
0.000324123063
0.000691676677
0.000462422314
0.000471667158
0.00036838765
0.000629756725
0.000149714689
0.000221029417
1.10359906e-05
0.000116599469
8.70662484e-05
6.08508223e-05
6.76652301e-05
6.64167502e-05
6.47091566e-05
7.74508809e-05
7.06030234e-05
7.53024398e-05
8.83160789e-05
5.80710303e-05
6.4704569e-05
4.46452245e-05
6.31099965e-05
7.21195119e-05
6.85924019e-05
6.94829307e-05
6.8779237e-05
6.92622881e-05
6.97913605e-05
4.6147482e-05
0.000225932472
0.000321935566
0.000433113338
0.000555491437
0.000689356372
0.000836120843
0.000997884623
0.00117718219
0.00137696077
0.00160053545
0.00185165736
0.00213449316
0.00245373701
0.00281456798
0.00322278878
0.00368473006
0.00420740296
0.00479830258
0.00546555116
0.00621752915
0.00706297272
0.00801034196
0.00906784812
0.0102424835
0.0115400299
0.0129637395
0.0145145082
0.0161892235
0.0179812106
0.0198782384
0.0218630342
0.0239105071
0.0259881611
0.0280516521
0.0300457162
0.0318965189
0.0335155166
0.0347842684
0.0355684209
0.0356827338
0.03493792
0.0330444255
0.0297888112
0.024644552
0.0172127725
0.00590881201
0.000545120122
0.00107136102
0.000611052097
8.69592818e-05
9.92916369e-05
0.000127867757
4.44094742e-05
0.000742224778
0.000237290894
0.000442739123
0.00013906245
0.00028440773
7.49103466e-05
0.000132546432
9.88768793e-05
6.46526572e-05
6.93316358e-05
6.95724357e-05
6.95056194e-05
8.34502583e-05
7.94314245e-05
8.11309388e-05
7.90983298e-05
6.01028222e-05
6.71205497e-05
4.83683763e-05
6.67699578e-05
7.24273821e-05
6.84075229e-05
6.83108696e-05
6.9389965e-05
6.97322054e-05
6.94328355e-05
4.57534706e-05
0.000211017963
0.000306289187
0.000414978219
0.000534282675
0.000664740566
0.000807808493
0.000965660118
0.001140769
0.00133620344
0.00155516991
0.00180160906
0.00207954643
0.00239397411
0.00274989209
0.00315355329
0.0036110613
0.00413008195
0.00471781838
0.00538330513
0.0061345404
0.00698146583
0.00793204047
0.00899596028
0.0101795946
0.0114903942
0.0129309564
0.0145038422
0.0162055298
0.0180308259
0.0199678514
0.0220003431
0.0241050685
0.0262495229
0.0283936505
0.0304801833
0.0324430286
0.0341875836
0.0356084308
0.0365575245
0.0368719407
0.0363325186
0.0346920974
0.0316584362
0.0267789898
0.0196769059
0.00847991585
0.00207510794
0.00028981652
7.27565865e-05
0.000590756087
0.000469732755
0.000698203217
0.000503310724
4.15032458e-05
0.000191912346
0.000336048727
6.70596637e-05
0.000158914399
0.000109332878
7.15274766e-05
8.63601422e-05
6.36798838e-05
6.96299518e-05
7.37144368e-05
7.30249375e-05
8.95541597e-05
8.80799603e-05
8.26682935e-05
8.01099294e-05
6.41822403e-05
6.54679337e-05
5.44123489e-05
6.6231766e-05
6.92592561e-05
6.90057839e-05
6.91732944e-05
6.96354068e-05
6.92369579e-05
6.97690249e-05
4.5307375e-05
0.000198172829
0.000293027252
0.000399176963
0.000515347766
0.000642231327
0.000781344773
0.00093480289
0.00110513548
0.00129526565
0.00150849395
0.0017485632
0.00201966383
0.00232653078
0.00267444009
0.00306932549
0.00351773526
0.0040269515
0.00460486263
0.00526005279
0.00600151831
0.00683867287
0.00778081529
0.00883700343
0.0100152071
0.011322087
0.0127618759
0.0143362569
0.0160431188
0.0178765718
0.0198258744
0.0218748809
0.0240012258
0.026174323
0.0283546213
0.0304900391
0.0325140434
0.034342317
0.0358667164
0.036956536
0.0374405023
0.0371257439
0.0357462476
0.0330357991
0.028538613
0.0219421831
0.0116039136
0.0019272456
0.00143906437
0.000405189356
2.0340878e-05
2.36306872e-05
0.000253821749
0.000114478799
0.000815317428
0.000350888576
0.000603502088
8.82688564e-05
0.000384116636
8.03761718e-05
0.000161710836
7.16288248e-05
6.70572702e-05
6.88620749e-05
7.28888419e-05
7.90192219e-05
8.32781355e-05
8.54549742e-05
7.87908984e-05
6.95991701e-05
7.17992092e-05
6.70048227e-05
5.95119758e-05
7.00056815e-05
6.91110074e-05
6.90435376e-05
6.89690056e-05
6.94974581e-05
6.96394684e-05
6.93653601e-05
4.38947811e-05
0.000185213831
0.000279501287
0.000382724308
0.000495475926
0.000618616382
0.000753688099
0.000902815155
0.00106847473
0.00125361799
0.00146147613
0.00169585054
0.00196085172
0.00226133233
0.00260248612
0.00299045581
0.003431714
0.00393388911
0.00450481409
0.00515361567
0.00588927156
0.00672199387
0.0076611106
0.0087167605
0.00989697764
0.0112097258
0.0126592963
0.0142486625
0.0159757453
0.0178357452
0.0198179746
0.0219071787
0.0240814769
0.0263109065
0.0285575193
0.0307690199
0.0328829857
0.0348131205
0.0364600599
0.0376872461
0.0383393742
0.0382104809
0.0370570883
0.0345778615
0.0303542487
0.0240648667
0.0146085747
0.00332928996
0.00087302858
0.00116304146
0.000718028197
0.000528590127
0.000186246081
0.00018703685
0.000127704936
8.05686532e-05
0.000238082692
0.000198607533
0.000191432956
0.000116034417
9.02104149e-05
5.33806898e-05
4.66628107e-05
5.99995636e-05
7.25715988e-05
8.0199875e-05
8.28307663e-05
8.92045196e-05
7.72576733e-05
7.03128779e-05
7.63801375e-05
6.5442662e-05
6.55524953e-05
6.894104e-05
6.84953712e-05
7.03493367e-05
7.01398636e-05
6.99312312e-05
6.94645363e-05
6.97058316e-05
4.21821935e-05
0.000171380713
0.000264416084
0.000363793139
0.00047220022
0.000590650037
0.000720705892
0.000864442224
0.00102434998
0.00120328634
0.00140452212
0.00163174557
0.00188915752
0.00218147681
0.00251406829
0.00289292192
0.00332480228
0.00381716776
0.00437831747
0.00501719177
0.00574347427
0.00656717182
0.00749863754
0.00854774227
0.00972385236
0.0110345627
0.0124857153
0.0140798291
0.0158164264
0.017690368
0.0196924673
0.0218077047
0.0240153904
0.0262870808
0.0285852252
0.0308611475
0.0330512061
0.0350757344
0.0368317038
0.0381931936
0.0389997946
0.0390576679
0.038123498
0.0359057329
0.0320303745
0.0261432793
0.017223618
0.0055475689
0.000615961156
0.000422112095
0.000304556697
6.57685346e-05
0.000790069788
0.000540637558
0.000798117162
0.000463803366
0.000562121634
0.000115632359
0.000291587296
9.73103935e-05
0.000127928499
6.36521639e-05
4.91276426e-05
6.32487673e-05
6.71586376e-05
8.34239838e-05
7.17617149e-05
8.18887016e-05
6.94837029e-05
5.86744436e-05
7.93437248e-05
6.86167222e-05
7.42941466e-05
6.75806056e-05
6.8688744e-05
6.97406113e-05
6.93287484e-05
6.92936822e-05
6.9579765e-05
6.93668511e-05
4.03738338e-05
0.000157564306
0.000249366891
0.00034469608
0.000448678034
0.000562443875
0.000687556423
0.000826086571
0.000980461322
0.00115355358
0.00134855926
0.00156921938
0.00181965174
0.00210468877
0.00242960711
0.00280060288
0.0032243526
0.00370865805
0.00426173927
0.00489307345
0.00561227878
0.00643014243
0.00735697361
0.00840366323
0.00957960429
0.0108935871
0.0123514216
0.0139569655
0.0157095509
0.0176054183
0.0196353773
0.0217857809
0.0240367562
0.0263612129
0.0287238768
0.0310773126
0.0333621809
0.0354997938
0.0373936364
0.0389182992
0.0399200876
0.0402057469
0.0395323549
0.0376142314
0.0340663474
0.0285478885
0.0204235258
0.00851548233
0.00188611479