/*--------------------------------*- C++ -*----------------------------------*\
| =========                 |                                                 |
| \\      /  F ield         | OpenFOAM: The Open Source CFD Toolbox           |
|  \\    /   O peration     | Version:  v2006                                 |
|   \\  /    A nd           | Website:  www.openfoam.com                      |
|    \\/     M anipulation  |                                                 |
\*---------------------------------------------------------------------------*/
FoamFile
{
    version     2.0;
    format      ascii;
    class       volScalarField;
    location    "0.0703000019";
    object      p;
}
// * * * * * * * * * * * * * * * * * * * * * * * * * * * * * * * * * * * * * //

dimensions      [1 -1 -2 0 0 0 0];


internalField   nonuniform List<scalar> 
14400
(
68828.4255
68824.0808
68841.3336
68805.7349
68862.5982
68783.0819
68886.5183
68758.8566
68911.1124
68734.671
68935.0252
68711.6733
68957.241
68690.7145
68976.9773
68672.4242
68993.5607
68657.2598
69006.5768
68645.5329
69015.8619
68637.3244
69021.3666
68632.6539
69022.9941
68631.4772
69022.6119
68630.9012
69021.841
68630.2176
69020.2747
68629.2017
69017.2799
68627.6964
69012.8154
68624.8049
69007.8754
68622.3887
69003.6691
68618.0515
68995.7802
68613.9805
68987.6777
68608.3701
68976.6373
68597.0268
68963.6326
68581.5396
68947.5058
68566.9151
68926.3877
68546.697
68901.4768
68518.8204
68867.1434
68488.8456
68823.1306
68451.7889
68774.2098
68410.1967
68721.5981
68336.135
68629.7942
68288.7441
68549.1438
68238.2907
68480.3675
68211.1511
68443.3176
68252.3768
68393.146
68307.6021
68293.9849
68136.5447
68294.8118
68105.8818
68342.805
68618.7431
68484.4304
68664.7134
67978.3169
67967.7634
68007.9688
67925.1122
68055.9525
67874.3052
68108.8355
67820.5449
68163.4059
67766.0017
68218.1014
67712.0149
68271.7195
67659.7325
68323.1859
67610.1772
68371.5488
67564.2891
68415.9207
67522.9554
68455.4683
67486.9515
68489.49
67456.8742
68517.4685
67433.179
68539.4334
67415.7687
68554.4685
67404.5249
68562.9613
67399.4524
68565.2695
67400.7029
68562.5301
67404.9532
68557.9672
67411.4293
68553.1132
67420.2631
68546.8829
67429.5956
68539.0174
67440.6035
68530.3124
67453.1635
68519.3501
67470.1666
68505.4759
67488.7733
68488.7543
67509.4449
68467.5004
67529.1774
68436.6347
67545.0013
68396.1899
67551.9259
68342.8555
67564.0368
68278.0719
67579.2909
68190.8726
67585.772
68088.3902
67635.4463
68025.0729
67699.1487
68044.4913
67780.1618
68073.8698
68001.0306
68110.4778
68064.984
67813.4065
68031.6314
67882.7083
68288.658
68109.0699
68573.9963
67836.7528
67826.8804
67864.2636
67786.9558
67909.1982
67738.8428
67959.6746
67686.7196
68013.1466
67632.3717
68068.187
67577.0645
68123.6164
67521.9857
68178.3452
67468.1923
68231.3388
67416.7046
68281.6127
67368.4956
68328.2476
67324.4618
68370.4016
67285.4267
68407.3193
67252.112
68438.3318
67225.1134
68462.8431
67204.8614
68480.3578
67191.5842
68490.5479
67185.3142
68493.4413
67185.371
68490.0675
67191.1299
68483.1997
67198.6144
68474.6052
67207.6246
68463.1082
67218.6995
68448.9028
67232.1804
68430.4554
67249.1768
68407.2291
67269.199
68378.8651
67296.8126
68347.713
67336.2251
68312.8113
67390.6943
68275.3072
67453.996
68230.6359
67518.6679
68151.4965
67582.0032
68074.7232
67647.8541
68017.8987
67736.8369
67923.4804
67816.6056
67837.3785
67919.3759
67728.1408
67938.5018
67600.3758
67948.2762
67596.6263
67963.2176
67757.3481
68166.8127
67949.8493
68095.0851
68260.5304
68251.1553
68286.5174
68213.2434
68329.3217
68167.1097
68377.9914
68116.4559
68430.2785
68062.939
68484.7879
68007.836
68540.3198
67952.295
68595.7775
67897.3876
68650.1206
67844.1556
68702.3212
67793.6448
68751.3464
67746.907
68796.161
67704.9766
68835.6954
67668.8234
68869.124
67639.3299
68895.6589
67617.2154
68914.7049
67602.9297
68925.9696
67596.4856
68929.6223
67597.195
68926.5723
67603.6023
68919.0311
67614.3092
68908.1863
67628.2641
68894.1711
67646.5474
68876.4132
67670.3668
68853.5245
67700.1603
68824.5247
67735.3809
68787.4433
67774.5936
68741.7422
67812.7774
68682.3158
67847.323
68605.7206
67896.4794
68502.2727
67941.7905
68396.2119
67974.5996
68267.465
68010.8261
68149.8795
68076.9494
68038.214
68166.6677
68026.7393
68350.1713
68093.8912
68524.7352
68238.5858
68492.9257
68021.8784
68196.7459
68150.1767
68347.776
68315.2023
68420.7064
67614.6314
67612.328
67621.0453
67602.9745
67631.6539
67591.4888
67643.8485
67578.7387
67657.0818
67565.1609
67670.9635
67551.1265
67685.141
67536.9782
67699.2866
67523.043
67713.0796
67509.655
67726.1843
67497.1743
67738.2356
67485.9974
67748.8374
67476.5504
67757.5761
67469.2684
67764.0477
67464.5584
67767.9007
67462.7365
67768.9034
67463.9288
67767.0471
67467.9269
67762.7078
67474.0086
67756.8795
67480.8425
67751.406
67486.6977
67747.5018
67492.4317
67742.7562
67500.7464
67737.0634
67511.5168
67729.7961
67526.7804
67719.758
67547.388
67705.5829
67574.7011
67687.4659
67610.3079
67664.9574
67647.7395
67639.4103
67663.841
67628.6298
67713.0168
67614.3167
67779.8839
67606.52
67822.9352
67648.3797
67893.8022
67680.9258
67934.9848
67670.4112
67905.3972
67650.3803
67845.3584
67748.0851
67847.3235
67873.0016
67856.2783
68088.0149
68104.5912
68169.3795
68253.6067
67885.4453
67888.4585
67877.3047
67900.4403
67863.6622
67915.3378
67847.7408
67932.1522
67830.1895
67950.354
67811.4881
67969.5068
67792.0301
67989.268
67772.1125
68009.3898
67751.9467
68029.7002
67731.6813
68050.0813
67711.4204
68070.4546
67691.2342
68090.7724
67671.1658
68111.0089
67651.2426
68131.1365
67631.5087
68151.0737
67612.0841
68170.4627
67593.2211
68188.9152
67575.619
68205.4489
67560.7163
68218.1143
67550.4941
68224.1744
67547.6963
68221.2077
67549.8718
68215.72
67552.1319
68208.425
67554.4895
68199.2329
67556.8125
68188.076
67559.2395
68173.8639
67562.7426
68153.9896
67568.5534
68122.9237
67579.307
68085.2957
67579.0036
68002.7594
67562.3338
67916.7624
67582.182
67838.9275
67601.559
67747.932
67687.1751
67621.2579
67850.2997
67561.8124
67999.7545
67628.1557
68202.2629
67644.4891
67949.4022
67515.8538
67836.3606
68040.4146
67945.6031
68240.1992
67557.0684
67563.9912
67538.3431
67591.6449
67506.6432
67626.5018
67469.1196
67666.3398
67427.3351
67709.7671
67382.6129
67755.539
67336.0998
67802.6208
67288.7275
67850.1764
67241.2636
67897.494
67194.3959
67943.9035
67148.8068
67988.7166
67105.2176
68031.2004
67064.3988
68070.5827
67027.155
68106.0744
66994.3013
68136.8933
66966.642
68162.2837
66944.95
68181.7093
66929.9589
68194.291
66922.3769
68199.3946
66922.2739
68196.8852
66929.9626
68186.9009
66944.8192
68172.0974
66964.6507
68153.4706
66990.0012
68129.8721
67022.3747
68100.123
67062.6928
68061.8038
67111.6706
68013.5638
67168.8343
67958.7318
67232.9508
67901.6009
67304.0866
67871.4588
67420.2849
67827.7465
67554.8707
67701.829
67733.749
67550.8121
67918.6995
67395.629
68030.3831
67265.8278
68066.2524
67136.5202
67929.2374
67324.5145
67672.9807
67675.5903
67600.4228
67875.2855
67691.7662
67904.9105
68170.7762
68172.3838
68166.4883
68178.7496
68159.1424
68186.8886
68150.325
68196.3043
68140.4185
68206.6353
68129.7755
68217.5477
68118.7075
68228.7584
68107.4766
68240.0269
68096.3151
68251.1301
68085.4544
68261.8335
68075.1522
68271.8681
68065.711
68280.9172
68057.4863
68288.6163
68050.8791
68294.5671
68046.3146
68298.367
68044.2025
68299.6576
68044.8704
68298.2036
68048.4536
68294.0188
68054.719
68287.5589
68062.8051
68279.9835
68070.9121
68273.4833
68076.8338
68268.7092
68082.3219
68263.6967
68088.2886
68257.8253
68094.3958
68250.2762
68099.9333
68239.2603
68104.9001
68219.8965
68113.2336
68184.6972
68128.2796
68133.1245
68168.7878
68075.7556
68182.3845
68000.0183
68201.8853
67960.2656
68199.3246
67941.805
68230.5053
67866.1599
68278.4815
67795.7766
68189.9888
67793.7491
68179.1201
67854.5
67890.3235
67704.0897
67738.5931
67995.8736
67948.6467
67953.4174
67915.3933
67911.9531
67924.599
67898.2688
67940.5373
67880.4605
67960.0012
67859.5637
67982.1438
67836.4009
68006.1749
67811.7018
68031.4485
67786.0241
68057.497
67759.7592
68083.9999
67733.1754
68110.7377
67706.4628
68137.5511
67679.7685
68164.3075
67653.2175
68190.8762
67626.9206
68217.1607
67600.9843
68243.0345
67575.5115
68268.4773
67550.6712
68293.149
67526.8547
68316.5346
67504.7526
68337.6732
67485.5871
68354.8453
67471.4954
68365.185
67465.9235
68364.355
67471.9544
68353.9785
67483.7808
68340.0429
67499.3881
68322.9577
67520.541
68302.0665
67550.7342
68275.7292
67596.0184
68239.6264
67664.5821
68190.8597
67758.9619
68125.2594
67855.0793
68056.6512
67990.3313
67974.6912
68084.3186
67884.4454
68190.0012
67791.5535
68252.653
67749.1783
68253.1699
67719.1149
68111.2775
67755.6668
67844.7761
67927.9239
67709.4902
68106.1266
67880.7164
68072.1689
68124.9032
68652.0388
68646.4968
68666.7537
68624.4443
68692.6913
68595.1895
68724.8949
68560.4208
68761.8598
68521.6487
68802.1177
68480.2389
68844.4428
68437.2713
68887.8957
68393.569
68931.7499
68349.7949
68975.3873
68306.5553
69018.2028
68264.4844
69059.5311
68224.304
69098.6054
68186.8463
69134.5511
68153.0442
69166.409
68123.8966
69193.3
68100.439
69214.1129
68083.6614
69227.8034
68074.4437
69233.6966
68073.2922
69231.4355
68080.2804
69221.2215
68094.683
69204.0717
68115.0687
69181.0182
68141.4923
69151.3324
68175.7468
69113.208
68219.9672
69065.3764
68276.4239
69007.1677
68346.8324
68937.5119
68431.2877
68852.3468
68526.6209
68740.5693
68639.6751
68598.9001
68750.9477
68449.8447
68884.8734
68299.9066
68983.2446
68166.7703
69012.8236
68029.326
68938.3695
68009.2506
68702.2006
68225.5933
68330.266
68488.9273
67566.6983
68313.5724
68084.2435
68093.0609
68121.9173
68733.7023
68734.2886
68732.1859
68736.5754
68729.4594
68739.6782
68726.0132
68743.4225
68722.0085
68747.6489
68717.594
68752.2276
68712.877
68757.0776
68707.9147
68762.168
68702.717
68767.5146
68697.2501
68773.1796
68691.4394
68779.2664
68685.169
68785.9263
68678.2831
68793.3562
68670.5919
68801.7918
68661.8867
68811.4888
68651.9739
68822.6806
68640.7393
68835.5008
68628.2565
68849.8529
68614.9618
68865.2097
68601.9062
68880.3218
68591.1157
68892.8314
68586.0782
68898.8809
68590.2589
68898.9593
68599.3322
68898.7552
68611.1281
68899.0324
68625.8024
68900.0436
68643.0438
68901.8315
68662.7704
68905.5412
68682.1405
68916.5613
68691.9691
68928.5033
68723.8107
68936.8353
68766.9626
68962.6013
68814.8587
68955.6391
68849.1053
68953.3237
68897.7497
68946.4545
68874.7088
68873.5533
68703.4161
68913.0881
68598.4442
68451.8856
68880.3234
68419.5262
68606.1245
68425.7152
69064.8323
69065.6041
69062.8297
69068.6435
69059.1643
69072.8474
69054.4663
69077.9611
69048.9858
69083.7325
69042.9612
69089.9464
69036.5787
69096.4458
69029.967
69103.1267
69023.2093
69109.9246
69016.3578
69116.8181
69009.4494
69123.7462
69002.5087
69130.6971
68995.5622
69137.662
68988.6466
69144.6192
68981.8149
69151.5379
68975.1479
69158.3679
68968.774
69165.0174
68962.9022
69171.3172
68957.8701
69176.9641
68954.2064
69181.4467
68952.7027
69183.9342
68954.5487
69183.0367
68961.3033
69177.8271
68971.6152
69170.9235
68983.5923
69162.8718
68996.0926
69153.6594
69007.7346
69144.5238
69018.8413
69138.4771
69031.0369
69131.9424
69087.9145
69137.7158
69174.6955
69112.7215
69261.0143
69104.049
69383.5881
69105.5076
69530.4889
69044.5815
69574.0689
68967.2727
69351.0421
69017.9192
68986.4426
69086.3868
68846.0145
68952.538
69320.2849
68613.8766
69244.1832
68750.2891
68365.538
68365.6636
68365.2202
68366.1543
68364.6177
68366.85
68363.8383
68367.6989
68362.9357
68368.6444
68361.9664
68369.631
68360.9851
68370.6049
68360.0473
68371.5085
68359.2156
68372.273
68358.5681
68372.8096
68358.2074
68373.0008
68358.2686
68372.6925
68358.9262
68371.6998
68360.3961
68369.776
68362.926
68366.6543
68366.7736
68362.0848
68372.1422
68355.8618
68379.1358
68347.7671
68387.7426
68338.3222
68397.4664
68328.1023
68407.2613
68318.6036
68415.2539
68312.4313
68419.0269
68311.6533
68419.7769
68313.8717
68423.2008
68317.8432
68432.3421
68323.8988
68448.7604
68331.9245
68469.2109
68341.582
68505.282
68367.816
68538.8925
68416.5684
68578.0905
68543.4001
68668.0832
68646.8493
68778.0166
68700.723
68894.8988
68775.0008
68984.2863
68697.9827
68970.2951
68445.4818
68766.4707
68429.114
68729.7349
68831.0974
69099.162
68433.3721
69062.2302
68846.1406
69076.2278
69074.1521
69081.557
69065.8615
69091.8021
69053.8553
69105.3633
69038.9603
69121.3814
69022.027
69139.0608
69003.7708
69157.7772
68984.7283
69177.0748
68965.2886
69196.6196
68945.747
69216.1452
68926.3553
69235.4057
68907.3639
69254.1387
68889.0521
69272.039
68871.7457
69288.746
68855.8184
69303.8469
68841.675
69316.8963
68829.7182
69327.4459
68820.3019
69335.2513
68813.7097
69339.6353
68810.0227
69340.5876
68808.8908
69338.0831
68809.6967
69332.2831
68811.2841
69323.5042
68812.3686
69311.5064
68813.3186
69294.487
68815.7758
69271.1674
68822.7257
69246.559
68840.144
69232.5949
68874.5755
69210.8936
68898.1168
69163.0914
68910.4118
69118.6025
68937.6257
69052.6882
68938.9836
69016.3756
68969.3221
69000.9823
68876.1803
68947.4487
68636.7891
68847.0539
68338.2781
68928.2166
68131.0552
69091.9431
68543.653
68373.7838
68627.3498
68518.2065
68210.4622
69097.7975
69097.8912
69097.5634
69098.2575
69097.0988
69098.8055
69096.477
69099.4906
69095.7446
69100.2661
69094.9472
69101.0897
69094.1265
69101.9229
69093.3225
69102.7275
69092.5791
69103.4602
69091.9504
69104.0659
69091.5078
69104.4725
69091.3486
69104.5861
69091.6058
69104.2809
69092.4465
69103.4035
69094.0762
69101.7765
69096.7074
69099.19
69100.5746
69095.4486
69105.9006
69090.446
69112.8255
69084.1819
69121.3361
69076.8579
69131.1673
69068.962
69141.6906
69061.3074
69151.8848
69054.9811
69161.5234
69048.016
69174.8142
69036.8591
69193.1032
69018.4297
69211.5644
68988.3801
69220.4238
68940.7845
69228.0132
68893.5696
69257.4062
68791.1799
69284.8427
68655.7667
69273.9628
68503.477
69276.294
68290.4822
69247.9646
68022.8652
69227.6277
67917.8667
69227.354
68267.7021
69053.6387
68862.3598
68545.6467
68590.2727
68065.736
68679.6529
68429.876
68149.8001
69893.3158
69889.2872
69903.417
69873.1406
69923.9891
69848.572
69952.0311
69817.559
69985.516
69782.0303
70022.6921
69743.521
70062.251
69703.123
70103.297
69661.5642
70145.2442
69619.3198
70187.7087
69576.7124
70230.4209
69533.9904
70273.159
69491.3875
70315.7028
69449.163
70357.8087
69407.6194
70399.211
69367.0968
70439.6686
69327.9601
70478.9819
69290.604
70516.9178
69255.5141
70553.219
69223.4477
70587.3546
69195.7869
70618.0843
69175.1098
70642.8247
69165.8684
70656.7115
69174.314
70655.5558
69197.1629
70647.8244
69225.4343
70634.3741
69257.2053
70615.7562
69284.625
70591.388
69307.5657
70541.9482
69302.5178
70454.1382
69307.9199
70348.7333
69237.5885
70198.7932
69163.3055
70020.8974
68997.34
69756.242
68892.5516
69519.5175
68825.8652
69317.2519
69019.8978
69304.3025
69059.561
68772.2175
68757.6934
68173.0961
68715.2515
68319.7792
67945.2562
69166.2956
69162.0246
69176.9142
69144.8076
69199.17
69118.0257
69229.8474
69084.0374
69266.5671
69045.0668
69307.3298
69002.8528
69350.6579
68958.6229
69395.5438
68913.1917
69441.327
68867.0886
69487.5722
68820.6693
69533.9679
68774.2035
69580.2487
68727.9435
69626.1316
68682.1785
69671.2665
68637.2724
69715.2012
68593.6825
69757.3638
68551.9583
69797.0539
68512.7305
69833.4183
68476.69
69865.4135
68444.5735
69891.7775
68417.1573
69910.9112
68394.9026
69920.6599
68379.1012
69917.8144
68373.3752
69897.8473
68378.7848
69867.3091
68393.9984
69833.2088
68423.7112
69794.6013
68492.9095
69745.4771
68577.4113
69718.5114
68688.3603
69700.4507
68785.3955
69679.8574
68922.0571
69690.743
69067.1498
69660.0034
69229.7044
69665.6738
69263.6955
69600.9315
69187.2876
69363.3228
69115.5515
69025.8352
69243.665
68714.4454
68896.8794
68656.9127
68792.922
68787.2395
68309.2408
69403.9305
69396.754
69421.6603
69367.5538
69460.0092
69321.0414
69513.5508
69261.5781
69577.9366
69193.1865
69649.5684
69118.9991
69725.7815
69041.2456
69804.7359
68961.4377
69885.1934
68880.6024
69966.2945
68799.4868
70047.375
68718.7204
70127.8248
68638.9408
70206.9793
68560.8904
70284.039
68485.4858
70358.0239
68413.8542
70427.7628
68347.3457
70491.8987
68287.5638
70548.8575
68236.4766
70596.7156
68196.6899
70632.9421
68171.8478
70654.1186
68166.9296
70656.1249
68187.7623
70635.2702
68237.9054
70592.0418
68307.8592
70538.9852
68380.752
70470.1375
68470.2012
70384.688
68527.3185
70298.4015
68641.3472
70154.3419
68773.9562
70013.4136
68961.8521
69823.831
69199.1295
69672.5399
69463.913
69524.3595
69729.565
69326.9939
69937.6102
69096.6694
69803.1981
68682.5677
69346.8342
68223.043
68689.5519
68577.7413
68415.0361
68635.7637
68472.2363
68528.1923
68157.5244
69410.9412
69406.4991
69421.8052
69388.2587
69446.1869
69358.4434
69480.6522
69320.0869
69522.2436
69275.8793
69568.5778
69227.8864
69617.8996
69177.5792
69668.9876
69125.9735
69720.9935
69073.7917
69773.286
69021.6076
69825.3185
68969.9635
69876.5224
68919.4635
69926.22
68870.844
69973.5592
68825.0156
70017.479
68783.0595
70056.7196
68746.1657
70089.8815
68715.5049
70115.5431
68692.0073
70132.4431
68676.0295
70139.7379
68666.928
70137.2384
68662.8629
70125.098
68661.7915
70101.998
68666.7963
70060.4618
68693.327
69995.1816
68754.2076
69940.9833
68793.6925
69876.4067
68920.14
69777.3853
68984.0636
69708.6349
69131.3084
69605.896
69258.7059
69545.4533
69367.6503
69449.388
69513.4431
69418.1292
69647.1615
69390.6315
69730.2977
69251.1047
69696.7774
69040.133
69605.366
68548.8447
68908.7996
68412.7356
68247.9691
68643.4922
68412.6571
68080.6065
68015.7722
70109.4918
70104.1778
70122.3537
70082.1669
70152.235
70045.3442
70194.954
69997.6814
70246.7026
69942.6018
70304.4642
69882.7114
70366.0271
69819.8624
70429.8532
69755.3317
70494.8753
69690.0294
70560.2958
69624.6847
70625.4172
69560.0013
70689.5001
69496.7876
70751.6423
69436.0678
70810.6804
69379.1672
70865.2156
69327.7708
70913.4703
69283.9167
70953.1411
69249.8822
70981.9204
69228.1835
70997.573
69221.3887
70998.3202
69231.8561
70983.4638
69260.8812
70957.8526
69307.9826
70928.4844
69367.3497
70907.0983
69417.3019
70891.9178
69445.6006
70777.3448
69550.1763
70679.3644
69596.6251
70615.3973
69722.4311
70528.2054
69723.2764
70371.9992
69770.8734
70208.583
69885.525
70039.4811
69978.6771
69826.54
70084.5316
69569.8438
70046.1587
69280.2734
69908.5974
69081.3557
69466.4338
69007.4276
68656.8747
68896.4198
68708.3504
68461.6848
68797.3908
68064.7328
67723.1615
70046.0007
70045.8331
70046.4172
70045.1037
70047.4346
70043.854
70048.9041
70042.2356
70050.6816
70040.3826
70052.6486
70038.4072
70054.7084
70036.4064
70056.7774
70034.4742
70058.7737
70032.7156
70060.6057
70031.2617
70062.161
70030.2859
70063.2992
70030.0181
70063.8518
70030.7558
70063.637
70032.8816
70062.5461
70036.822
70060.5363
70043.0091
70057.6568
70051.8678
70054.0113
70063.8391
70050.508
70079.2909
70045.5331
70098.2302
70036.2424
70119.2287
70016.0276
70134.2131
69981.3851
70120.3436
69949.8383
70062.9473
69924.4833
70043.2702
70003.9963
69993.8068
70014.4726
69911.4273
69968.0278
69824.8808
69953.9781
69762.4157
70008.7683
69614.2582
70059.3277
69455.8188
70084.0173
69260.4898
70160.2155
69072.8929
70187.0559
68981.3688
70059.2338
68970.5517
69563.0835
69022.6488
68860.2742
68850.1751
68232.9551
68732.5317
68468.8011
68467.6061
68426.29
68146.0102
71080.2271
71077.9225
71085.6755
71068.175
71099.3684
71051.0422
71119.3889
71028.6046
71143.8119
71002.5501
71171.1677
70974.1369
71200.388
70944.2546
71230.725
70913.5193
71261.6465
70882.3762
71292.7329
70851.1887
71323.5888
70820.3101
71353.7657
70790.137
71382.6952
70761.1378
71409.6356
70733.8401
71433.6497
70708.7413
71453.6451
70686.1027
71468.5734
70665.581
71478.0578
70645.7772
71481.8212
70623.7638
71482.3105
70594.7833
71483.0475
70556.4951
71484.9909
70519.7161
71478.7297
70527.9678
71449.574
70628.3369
71446.8621
70673.6501
71386.5719
70538.0924
71368.5037
70609.8795
71346.4894
70569.5269
71210.4297
70595.5018
71078.2042
70571.2257
70866.974
70467.5358
70679.655
70298.8494
70325.4727
70114.7222
69881.9902
69866.6286
69383.4147
69446.6257
68988.2383
68998.2488
68540.8889
68576.7557
68230.828
68275.6252
68391.7601
68156.7091
67699.9645
67739.4017
71485.0357
71484.9038
71485.3364
71484.348
71486.1303
71483.3516
71487.3011
71482.0422
71488.7304
71480.5212
71490.3279
71478.864
71492.0252
71477.1247
71493.7679
71475.3427
71495.505
71473.5503
71497.1757
71471.7795
71498.6908
71470.0707
71499.9055
71468.4819
71500.5761
71467.1018
71500.2719
71466.0579
71498.2781
71465.6312
71493.5797
71466.1154
71484.4939
71467.8609
71468.835
71471.4699
71443.6883
71477.2054
71406.8099
71485.3429
71359.6623
71497.6392
71309.078
71515.3173
71262.036
71529.9732
71216.1163
71489.4843
71285.9136
71447.8715
71241.4205
71450.3849
71217.2772
71359.5786
71094.974
71270.2444
71135.6542
71090.1004
71040.5729
70936.0097
70948.319
70678.7865
70815.8954
70365.4481
70652.288
70006.8713
70383.4458
69592.3804
69978.3055
69261.1921
69451.7312
69027.1705
69023.2755
68806.8001
68480.424
68618.5024
68374.5487
68356.7653
67810.7556
67879.4897
72244.4028
72243.3783
72246.7332
72239.0433
72253.0543
72231.0533
72262.4912
72220.4741
72274.0915
72208.1254
72287.1657
72194.5947
72301.2399
72180.2794
72316.0147
72165.4337
72331.3209
72150.2157
72347.0817
72134.7278
72363.2872
72119.0507
72379.9798
72103.2743
72397.2503
72087.5265
72415.2406
72072.2932
72434.1459
72057.6837
72454.0785
72044.707
72475.0069
72034.9739
72496.377
72031.4218
72516.6095
72038.4146
72531.3819
72059.654
72535.4599
72090.1432
72526.1426
72096.9196
72524.7054
72030.0507
72550.9059
71954.9455
72390.596
71867.8485
72369.0376
71915.1909
72324.9328
71873.8152
72367.7843
71799.2182
72136.1229
71630.2827
71936.2133
71413.4398
71667.2761
71238.2417
71239.631
70933.6715
70702.6786
70526.26
70121.2547
69916.0305
69682.3904
69186.8755
69233.1848
68708.5499
68683.2718
68493.4726
68508.9368
68574.4534
68172.5866
68138.5177
67700.2939
67737.2671
72930.0455
72930.2008
72929.6904
72930.8741
72928.7026
72932.1517
72927.211
72933.8574
72925.3728
72935.8608
72923.3016
72938.0723
72921.076
72940.4357
72918.7483
72942.9205
72916.3531
72945.515
72913.9169
72948.2407
72911.4709
72951.1214
72909.0643
72954.079
72906.7811
72957.1503
72904.7942
72960.2928
72903.4355
72963.1667
72903.148
72965.6262
72905.286
72967.4152
72910.9812
72967.5328
72921.3856
72965.3594
72937.13
72961.2977
72955.1669
72957.5781
72963.4228
72957.5468
72945.6645
72954.8318
72917.6499
72906.7094
72895.4453
72834.7875
72824.9568
72792.8798
72733.1731
72669.5399
72506.8715
72481.7475
72430.364
72232.2059
72186.5671
71866.9888
71922.9997
71343.8386
71522.1049
70775.2091
71087.7716
70134.8118
70514.3853
69492.3992
69901.7384
69019.5288
69409.5268
68635.286
68800.7732
68606.213
68239.1321
68541.8228
68126.4428
67929.7151
67744.6215
67962.0551
73962.9736
73962.2573
73964.5346
73959.194
73969.2107
73953.1901
73976.3839
73945.1219
73985.2693
73935.6567
73995.3057
73925.2708
74006.0948
73914.2991
74017.3564
73902.9788
74028.8811
73891.493
74040.4856
73880.0171
74051.9704
73868.7706
74063.0802
73857.9529
74073.5693
73847.7739
74082.8914
73838.6084
74090.2159
73830.6888
74094.5792
73824.057
74095.0455
73818.3037
74090.3567
73812.1895
74079.4635
73804.0265
74061.9888
73792.5448
74038.6049
73780.7588
74012.2443
73778.6965
73987.2087
73786.0496
73944.2084
73717.4788
73879.9282
73683.6293
73812.8836
73613.6553
73644.8367
73389.9108
73423.9981
73286.1888
73157.0728
73022.6317
72856.6851
72665.2209
72251.2012
72146.9424
71700.5556
71535.9166
71016.257
70790.4915
70318.7752
70123.7648
69639.7796
69350.6902
69072.1835
68751.6218
68559.2729
68430.0918
68429.3468
68282.1636
68126.1769
67912.6738
67277.5475
67621.0814
75146.1246
75146.5471
75145.2554
75148.3429
75142.5166
75151.9925
75138.2095
75156.9583
75132.8244
75162.8354
75126.7033
75169.3478
75120.0794
75176.3137
75113.1056
75183.6188
75105.8791
75191.1919
75098.4598
75199.0753
75090.8951
75207.2141
75083.2091
75215.3402
75075.4235
75223.4995
75067.4414
75231.5852
75058.9754
75239.3924
75049.5626
75246.6093
75038.4602
75252.6634
75024.6426
75256.2574
75007.7436
75254.4068
74989.4893
75240.891
74975.5401
75206.9309
74969.8548
75154.0329
74948.5047
75110.1038
74870.8791
75081.4909
74787.8327
74897.6942
74603.6961
74685.5779
74404.2223
74219.2084
74203.9768
74029.6848
73763.881
73496.85
73212.4267
72747.5566
72677.1611
72082.6533
72024.2876
71214.2125
71325.6513
70345.2831
70534.8804
69478.2664
69828.3365
68894.8962
69154.8769
68464.0058
68796.8303
68497.6914
68390.1854
68555.8879
68080.7831
67981.6407
67689.0595
67954.3631
76763.9802
76763.1967
76765.4346
76760.1342
76770.3658
76753.5117
76778.3564
76744.3044
76788.4576
76733.2871
76800.0273
76720.9678
76812.6476
76707.6634
76826.0548
76693.5672
76840.1133
76678.7917
76854.7388
76663.3958
76869.8761
76647.4264
76885.4696
76630.9346
76901.4153
76614.027
76917.5456
76596.9033
76933.557
76579.915
76948.8841
76563.6901
76962.3965
76549.3867
76971.6873
76539.1045
76971.6374
76536.1023
76952.2489
76542.857
76897.4505
76548.2483
76794.2354
76487.4453
76660.4911
76285.386
76521.3235
76008.6111
76301.0992
75712.643
75942.2078
75621.0017
75373.5377
75245.803
74938.6427
74416.6266
74529.503
74087.8837
73784.4681
73454.4746
72949.4157
72566.4268
72096.0808
71678.577
71169.725
70835.5788
70295.928
69950.1802
69589.5693
69127.237
68974.8943
68442.3874
68206.1192
68106.3535
68117.1146
68053.7999
67858.3767
67717.3167
67361.0494
67698.0647
78733.812
78734.6479
78732.5172
78737.2377
78727.8819
78743.3346
78720.0736
78751.8342
78710.3655
78761.674
78699.2924
78772.4714
78686.9733
78784.1986
78673.1449
78797.0535
78657.4503
78811.0476
78639.9551
78825.7228
78620.8124
78840.4753
78600.1682
78854.4824
78578.18
78866.675
78555.0334
78875.4611
78531.0955
78878.3556
78507.0413
78871.5757
78483.9219
78849.5519
78462.9993
78804.5781
78444.607
78727.5797
78424.0513
78612.2975
78381.4202
78464.8472
78266.8858
78308.3295
78006.853
78160.254
77564.0695
77953.746
77317.4357
77343.3493
77200.2277
76442.5687
76425.3588
76270.7469
75865.7634
75462.414
74996.3686
74430.7375
74125.8403
73367.2536
73202.6333
72380.9941
72207.4107
71236.8681
71313.2194
70281.4802
70420.7542
69396.2144
69606.1706
68846.1472
69125.7722
68603.3285
68680.9169
68528.1049
68198.7696
68202.2776
67887.3275
67797.6133
67426.0689
67909.5498
79733.2904
79732.2091
79734.9678
79728.4242
79740.9758
79719.4628
79751.5118
79706.5194
79765.1344
79690.7909
79780.8119
79672.9937
79797.8641
79653.5165
79815.8211
79632.5132
79834.2966
79609.9801
79852.9303
79585.8263
79871.2803
79559.9072
79888.7118
79532.0833
79904.2722
79502.2613
79916.4887
79470.419
79923.1922
79436.5291
79921.3982
79400.1851
79907.3696
79359.7568
79877.0443
79310.8384
79827.1903
79243.6686
79757.9062
79139.9546
79676.5662
78973.9051
79599.8102
78734.1049
79539.76
78487.7905
79437.2871
78358.4636
78742.9918
78079.8185
77701.8423
77218.7143
77431.5008
76347.0997
76394.1977
75453.5194
75392.1268
74475.633
74363.0358
73530.5547
73278.7776
72392.5545
72133.2884
71425.5613
71062.8305
70501.5554
70090.192
69723.7439
69245.9037
68979.1364
68538.9928
68348.4724
68142.1077
67980.726
68296.5386
68076.904
67792.3755
67831.0791
67360.7295
67683.4758
79984.8431
79985.8393
79983.0503
79989.0211
79976.977
79996.5896
79966.7513
80007.3632
79953.6507
80020.1728
79938.5053
80034.241
79921.7682
80049.0472
79903.6193
80064.2236
79884.0294
80079.4733
79862.7989
80094.4967
79839.577
80108.9201
79813.866
80122.2145
79785.0154
80133.5978
79752.2049
80141.9205
79714.3939
80145.5409
79670.1587
80142.2417
79617.2312
80129.233
79551.625
80103.1986
79466.5551
80060.0408
79351.8254
79993.1355
79195.4693
79886.805
78991.0257
79698.4861
78749.2887
79328.217
78485.8346
78658.0308
78155.0925
78164.0154
77440.2535
77547.4986
76753.1896
76468.4097
75858.9656
75560.8686
74830.8522
74417.6117
73786.8674
73228.3106
72764.661
71979.8747
71767.1006
70726.098
70817.3306
69624.0133
69959.5293
68800.7201
69299.8636
68292.9953
68734.7729
68275.5535
68375.1973
68044.8153
67957.2176
67990.7409
67522.9958
67616.5243
67566.2684
68018.3315
79712.6921
79710.7613
79715.3038
79704.1655
79724.8757
79689.7584
79740.9558
79669.7056
79761.21
79645.8536
79784.0103
79619.3093
79808.2889
79590.6441
79833.3488
79560.0248
79858.7243
79527.296
79884.0732
79492.0223
79909.0858
79453.501
79933.3972
79410.7559
79956.4849
79362.5297
79977.5138
79307.3049
79995.1216
79243.3885
80007.0724
79169.0512
80009.7184
79082.5276
79997.2299
78981.72
79960.4698
78863.8635
79885.2724
78724.8742
79750.6951
78556.2651
79529.7926
78334.562
79198.3039
78000.3635
78755.7602
77471.137
78248.3981
76920.6868
77576.2672
76357.3357
76662.0563
75402.4571
75846.7764
74472.1594
74822.4667
73495.5755
73571.9176
72431.477
72422.4449
71345.8889
71301.605
70566.8402
70250.1715
69794.4212
69460.8933
69209.9435
68904.261
68713.8561
68329.0955
68298.7784
68073.2977
67828.2603
68262.518
67822.7273
67810.9208
67732.3128
67125.6149
67630.2314
78595.2657
78595.9314
78592.6477
78599.3184
78585.0133
78607.2887
78573.0604
78618.2909
78558.1544
78631.0076
78541.1454
78644.5042
78522.4829
78658.0949
78502.3042
78671.2398
78480.4882
78683.4557
78456.6849
78694.2405
78430.3149
78702.9921
78400.5494
78708.927
78366.2766
78710.9836
78326.0709
78707.6911
78278.1674
78697.0135
78220.4796
78676.1739
78150.6166
78641.4313
78065.5871
78587.7583
77960.8786
78508.5297
77829.0724
78395.2581
77657.8712
78237.0093
77427.2441
78018.0086
77108.5066
77706.8279
76682.3754
77227.9103
76203.5575
76528.9028
75648.886
75843.4644
74817.6433
74975.5785
74017.4751
74038.2214
73173.3443
72920.9074
72249.2775
71786.3203
71272.2262
70754.5069
70383.0075
69661.0441
69739.51
68852.0685
69086.3298
68360.5773
68433.2818
68029.4381
68251.7438
67813.8757
68137.6573
67749.6904
67901.6244
67859.6375
67443.9278
67703.4456
67743.6903
68118.4962
77062.4845
77059.688
77064.7356
77051.0145
77074.4193
77034.538
77089.9654
77012.7492
77108.8963
76987.4108
77129.4452
76959.5705
77150.3537
76929.7183
77170.7055
76897.8912
77189.7868
76863.7399
77206.9642
76826.5519
77221.5881
76785.2441
77232.8924
76738.3207
77239.8908
76683.8225
77241.2516
76619.2866
77235.142
76541.7244
77219.0594
76447.6904
77189.6474
76333.4742
77142.3457