/*--------------------------------*- C++ -*----------------------------------*\
| =========                 |                                                 |
| \\      /  F ield         | OpenFOAM: The Open Source CFD Toolbox           |
|  \\    /   O peration     | Version:  v2006                                 |
|   \\  /    A nd           | Website:  www.openfoam.com                      |
|    \\/     M anipulation  |                                                 |
\*---------------------------------------------------------------------------*/
FoamFile
{
    version     2.0;
    format      ascii;
    class       volScalarField;
    location    "0.0703000019";
    object      rho;
}
// * * * * * * * * * * * * * * * * * * * * * * * * * * * * * * * * * * * * * //

dimensions      [1 -3 0 0 0 0 0];


internalField   nonuniform List<scalar> 
14400
(
0.723492516
0.728634462
0.731637795
0.733755318
0.736709544
0.738127058
0.741470927
0.742315917
0.74619118
0.746529754
0.750995876
0.75089082
0.755963759
0.755483832
0.761151262
0.760375257
0.766608642
0.765626467
0.772373617
0.771257001
0.778420678
0.77720404
0.784630413
0.783291398
0.791197426
0.794022369
0.804831412
0.803695609
0.809136585
0.805537229
0.807712343
0.801064108
0.802749196
0.79277992
0.796705757
0.792595548
0.7993572
0.796712983
0.799494742
0.79494776
0.80022041
0.794231148
0.79986783
0.794849479
0.7993105
0.794678152
0.799944661
0.794401403
0.799332151
0.793989067
0.798881632
0.793855853
0.798542044
0.793585165
0.798086205
0.793381816
0.79744871
0.793106248
0.796975076
0.792837492
0.796445856
0.792146818
0.795526423
0.791695716
0.794706819
0.791212973
0.793958867
0.790911968
0.793472381
0.791311563
0.792722121
0.792893646
0.791061789
0.788330292
0.791137671
0.788617783
0.792967142
0.796191046
0.793293301
0.795457777
0.716513587
0.719082473
0.72095773
0.721398333
0.724067103
0.723406377
0.727197272
0.725433173
0.730455997
0.72758792
0.733890415
0.72994083
0.737545048
0.732563387
0.741473095
0.735535526
0.745740707
0.738950904
0.750434815
0.742927856
0.755671506
0.747613889
0.761600765
0.753188737
0.768411274
0.759867671
0.776267594
0.767604362
0.784797357
0.775816022
0.793180177
0.783429964
0.800233566
0.79119053
0.800608262
0.785153007
0.795911441
0.782176369
0.797718104
0.783795273
0.796365806
0.785352172
0.79549861
0.784797384
0.796558319
0.784147517
0.795932493
0.784714565
0.796097887
0.785151398
0.795911693
0.785347175
0.795777033
0.785551262
0.79531045
0.785659326
0.794876873
0.785795006
0.7942089
0.785980648
0.793522723
0.786164822
0.792656295
0.786383478
0.791644094
0.786881796
0.790918639
0.787414684
0.790622439
0.787698572
0.790239203
0.787448108
0.790458738
0.791370117
0.790807465
0.789380838
0.786736737
0.792060171
0.791961181
0.795358319
0.715021158
0.717338559
0.719043923
0.719415883
0.721863679
0.721188275
0.724680037
0.722916814
0.727572633
0.724685434
0.730576303
0.726551314
0.733722228
0.728571412
0.737046784
0.730807994
0.740595909
0.733334023
0.744429509
0.736237536
0.74862635
0.739626143
0.75328921
0.743631904
0.758549155
0.748413172
0.764563176
0.754143533
0.771489425
0.760969386
0.779418773
0.768903515
0.78820672
0.777530514
0.79636115
0.784026108
0.797672256
0.784998394
0.795612682
0.784930575
0.795559043
0.784213333
0.79697864
0.783286407
0.796776783
0.784427864
0.795485995
0.784788689
0.795423092
0.784919481
0.795168755
0.784944907
0.794805845
0.785097235
0.794696012
0.785405722
0.794596368
0.785722522
0.793938192
0.786056843
0.793168104
0.786705739
0.792430357
0.787350432
0.791863771
0.788198525
0.790832384
0.788823653
0.789709923
0.789158577
0.788193381
0.788554568
0.787929407
0.788292193
0.785765874
0.79027865
0.789269901
0.791565608
0.789801903
0.791674745
0.718134205
0.720367052
0.722003711
0.722377944
0.724714472
0.724081975
0.727408697
0.725712692
0.730156401
0.727345651
0.732988391
0.729034003
0.735930208
0.730826845
0.739008297
0.732774301
0.742253583
0.734932182
0.745705457
0.73736688
0.749416262
0.740160054
0.753456183
0.743413219
0.757918063
0.7472524
0.762925745
0.751831903
0.768633965
0.757329956
0.775217817
0.763915115
0.782810204
0.771608119
0.791245054
0.779771366
0.799243503
0.786707825
0.801183188
0.787541753
0.800287812
0.787875279
0.799519334
0.788379803
0.798927162
0.788237442
0.799691749
0.787450311
0.799461063
0.787782984
0.79895201
0.788338873
0.798482038
0.788909616
0.797729803
0.78916151
0.796952513
0.789796478
0.796086222
0.790294629
0.795170607
0.790456541
0.793990574
0.790521088
0.792939753
0.790876761
0.791731201
0.791378119
0.791349426
0.792319441
0.791514197
0.794486081
0.792831496
0.794339634
0.792929598
0.792851585
0.792416462
0.794401734
0.795702763
0.796754102
0.712465516
0.714733551
0.716071808
0.717014309
0.718407293
0.719047218
0.720661879
0.721022485
0.722917908
0.723002684
0.725217998
0.725032916
0.727596469
0.727152478
0.730084355
0.72939882
0.732713092
0.73181194
0.735518668
0.734439081
0.738546016
0.737339348
0.74185353
0.740588143
0.745517926
0.744281801
0.749639855
0.748542541
0.754350102
0.753522152
0.759813207
0.759396879
0.766216254
0.766327522
0.773701731
0.774297131
0.782127264
0.782542287
0.790140408
0.78892985
0.790698861
0.788489818
0.791788823
0.788015065
0.791280441
0.788497927
0.790057366
0.78922089
0.790098814
0.789931296
0.790761912
0.790085108
0.790456554
0.789774126
0.790085806
0.789778275
0.790069255
0.789036043
0.789449843
0.789000527
0.789042796
0.789191114
0.78881992
0.789210493
0.788813039
0.789470525
0.788849304
0.789286227
0.788589807
0.788893633
0.788332317
0.786585181
0.788930802
0.78969814
0.79072313
0.792035465
0.793706915
0.791534379
0.792085072
0.794288755
0.713676062
0.715993182
0.717123136
0.718502497
0.71919862
0.720805109
0.721130467
0.723063765
0.723012963
0.725334422
0.724901929
0.727657253
0.726841434
0.730065038
0.728868084
0.732587144
0.731015322
0.735253736
0.733318187
0.738100121
0.735818043
0.741171056
0.738567086
0.744524996
0.741632747
0.748238371
0.745102488
0.752410181
0.749089579
0.757166704
0.753739313
0.762662085
0.759230213
0.769069731
0.765756555
0.776514937
0.773431428
0.784804027
0.781929818
0.792180068
0.790146278
0.792838521
0.789402897
0.79385957
0.788249452
0.794793298
0.789111312
0.79355965
0.788484285
0.792756734
0.788511458
0.792476757
0.788342698
0.792502916
0.788356008
0.792273187
0.787860957
0.792423665
0.788604693
0.791291975
0.788207002
0.790296373
0.78820446
0.789251703
0.788135125
0.788045409
0.788736049
0.786583668
0.790148905
0.786109818
0.792065331
0.789251221
0.794103953
0.785821824
0.789212257
0.786741955
0.78941846
0.79134618
0.791841312
0.793688942
0.71126005
0.713576294
0.71453704
0.716220305
0.716384878
0.71869158
0.7180313
0.721133246
0.719581682
0.723597071
0.721105346
0.726118331
0.722656272
0.72872342
0.724277371
0.73143439
0.726005769
0.734272946
0.7278784
0.737264196
0.729937305
0.740440475
0.732234432
0.743845354
0.734835933
0.74753797
0.737826308
0.751597928
0.741313085
0.756131128
0.745432372
0.761275956
0.750353347
0.76720767
0.756273792
0.774115642
0.763377069
0.782116394
0.771647805
0.790863391
0.780834347
0.795007847
0.78382198
0.795204047
0.784308981
0.79346932
0.784570776
0.794227612
0.785333815
0.794079707
0.785073569
0.793767885
0.785425075
0.793166558
0.78602225
0.792550033
0.786679038
0.791434114
0.786644477
0.790599253
0.787272499
0.789878076
0.788127944
0.788475267
0.789399905
0.78662788
0.790896457
0.784978407
0.791918426
0.784043243
0.791705945
0.782376759
0.788588709
0.785127105
0.789018499
0.788856341
0.787297276
0.786866181
0.786420504
0.788975615
0.715126487
0.717406684
0.718594329
0.719855759
0.720720971
0.722048166
0.72266794
0.724146773
0.724535674
0.726222224
0.726390089
0.728323903
0.728279377
0.730487454
0.73023987
0.73274048
0.732301819
0.735107568
0.734494688
0.737614733
0.736852017
0.740293645
0.739416008
0.743185853
0.7422419
0.746347098
0.745402207
0.749852034
0.748991223
0.753799937
0.753130247
0.758321771
0.75797269
0.763586976
0.763703745
0.769801608
0.770514306
0.777166947
0.778471211
0.785682669
0.786921155
0.793710902
0.793366635
0.794324902
0.793338245
0.794932537
0.793052292
0.79497754
0.792232979
0.793952412
0.792091259
0.793663693
0.792412953
0.793471093
0.792443239
0.792939628
0.792292191
0.792353492
0.79310633
0.792289139
0.793455834
0.791319503
0.793488518
0.790649852
0.793415088
0.79012056
0.793711172
0.789258337
0.7943184
0.788617917
0.794571693
0.790425404
0.793698433
0.787514513
0.786493251
0.785899702
0.790046079
0.791334598
0.790545828
0.789659808
0.713922266
0.716130901
0.717512104
0.718359178
0.719865673
0.720242719
0.722069787
0.72196468
0.72422109
0.723616187
0.726379485
0.725261314
0.728585239
0.726945237
0.730867108
0.728701353
0.733248395
0.730557424
0.735751601
0.732540781
0.738402456
0.734682985
0.741233779
0.737024192
0.744289301
0.739617341
0.747628165
0.742532508
0.751328621
0.745861847
0.75549481
0.749726658
0.760258465
0.754286288
0.765784788
0.759743066
0.772260703
0.766330199
0.779824751
0.774237699
0.788236982
0.783521217
0.794300417
0.788709655
0.794858107
0.787561279
0.795866517
0.787228723
0.796560508
0.788262192
0.796230796
0.788084862
0.795677068
0.788613992
0.795093937
0.789199821
0.794882456
0.7904431
0.793339704
0.790666395
0.792605379
0.791493232
0.791755172
0.792081456
0.791063675
0.792706472
0.790323892
0.793196094
0.790048384
0.793236759
0.789253366
0.790896506
0.789510041
0.790870331
0.792154312
0.788812118
0.790992201
0.788198781
0.791108244
0.791805773
0.718757498
0.720981724
0.722471015
0.723170094
0.724958801
0.72494545
0.727296916
0.726511019
0.729589312
0.727975971
0.731896367
0.729415767
0.734255358
0.73088275
0.736691152
0.732415147
0.739222807
0.734044329
0.741867921
0.735800776
0.744646147
0.737719271
0.747582631
0.739843645
0.750711711
0.742231076
0.754080962
0.744956034
0.757755758
0.748114282
0.76182614
0.751827967
0.766410018
0.756250923
0.77166333
0.7615717
0.777785223
0.767998555
0.784991395
0.77567765
0.793353954
0.784284592
0.801390416
0.792219745
0.803306966
0.793231627
0.801602488
0.794115249
0.800324665
0.793497543
0.800053881
0.794410842
0.799589562
0.794806872
0.799045042
0.795518692
0.798054492
0.795653873
0.797877365
0.796781677
0.796988754
0.797884144
0.795902625
0.798842339
0.794822806
0.799643264
0.793660318
0.799741999
0.792347703
0.798928364
0.792714339
0.796579104
0.794921064
0.794364247
0.794549726
0.78738134
0.796698605
0.794221769
0.793415705
0.79317145
0.720774008
0.723034071
0.724280993
0.7254556
0.726424682
0.727518038
0.728317949
0.729420168
0.730094973
0.731262257
0.731837448
0.733106345
0.733597062
0.734992481
0.735408088
0.73694882
0.737295483
0.738998186
0.739280486
0.74116294
0.741385088
0.743469161
0.743636179
0.745950835
0.746069726
0.748654037
0.748735077
0.751641092
0.751699505
0.754994811
0.75505348
0.75882318
0.758917477
0.763264546
0.763450368
0.76849098
0.768856389
0.774699642
0.775377438
0.782051043
0.78322131
0.790354684
0.792292274
0.798322123
0.797073485
0.799404887
0.797819426
0.79876728
0.799084897
0.799674878
0.798997666
0.799430593
0.798743347
0.799093208
0.798660577
0.799117363
0.798647785
0.799457725
0.798082006
0.799503209
0.79813912
0.799629563
0.798507207
0.799732525
0.799073056
0.799873192
0.79947002
0.800031299
0.799880227
0.799993254
0.799546655
0.799646093
0.799002596
0.800553031
0.799059885
0.796163086
0.79942977
0.795579297
0.798629882
0.796850887
0.722495661
0.72489601
0.726219064
0.72747122
0.728462667
0.729629099
0.730409215
0.73160087
0.732218037
0.733501531
0.733981554
0.735398376
0.7357561
0.737332981
0.737577948
0.739333207
0.73947264
0.741420303
0.741461033
0.743613955
0.74356393
0.74593558
0.745806192
0.748413383
0.748221051
0.75108615
0.750854639
0.754007677
0.753770809
0.757251791
0.757056563
0.760918011
0.76082866
0.765138281
0.765241408
0.770083494
0.77049256
0.775962632
0.776814829
0.782987333
0.784407554
0.791182638
0.793164916
0.799227425
0.8012835
0.800544801
0.800336568
0.801466635
0.799355203
0.801095546
0.799628759
0.801053874
0.800206291
0.801041001
0.800041465
0.800940231
0.800115001
0.801060949
0.801013432
0.800934263
0.801864357
0.800790234
0.802669105
0.8008651
0.803712869
0.801115976
0.804958071
0.800633521
0.80496772
0.800039971
0.802115084
0.79871556
0.79907398
0.802214347
0.800828361
0.800463726
0.806835611
0.799750765
0.804148545
0.79934844
0.717230484
0.719688536
0.721080152
0.722305904
0.723392298
0.72444119
0.725381862
0.726361243
0.727227888
0.728195464
0.729027796
0.730016645
0.730838676
0.73186853
0.7326965
0.733779443
0.734626241
0.735769852
0.736648
0.737857266
0.738781431
0.74006009
0.741049605
0.742401284
0.743482872
0.744912361
0.74612298
0.747637373
0.749027486
0.75063825
0.752274812
0.754001321
0.755970251
0.757845555
0.760253812
0.762331689
0.76530802
0.76767796
0.77134983
0.774140887
0.77857134
0.78193613
0.78684655
0.790896825
0.794627237
0.7946992
0.796291387
0.793688098
0.797034953
0.793859972
0.796940317
0.794022381
0.796366291
0.794202626
0.796496849
0.794377243
0.796958522
0.794149575
0.796678944
0.794925312
0.796781601
0.796037715
0.797517669
0.797141178
0.798406807
0.79786102
0.79945199
0.798851574
0.800264782
0.798246678
0.80080885
0.797667947
0.799491389
0.795697159
0.799963836
0.798874309
0.801788668
0.796497845
0.803237381
0.800430146
0.722501338
0.725006649
0.726528034
0.727604575
0.728992774
0.729621739
0.73113929
0.73137243
0.733159991
0.733007653
0.735150093
0.73461206
0.737162001
0.736237079
0.739227479
0.737916468
0.741368033
0.739674933
0.74360058
0.74153372
0.745941252
0.743514888
0.748408593
0.745645119
0.751026761
0.747959423
0.753829033
0.750504903
0.756861794
0.753344748
0.760189394
0.756563091
0.763900691
0.760271716
0.76812007
0.764619424
0.773011136
0.769799708
0.778795021
0.776041056
0.785717552
0.783529136
0.793897189
0.792019331
0.802570041
0.796997773
0.803823137
0.797619574
0.802921185
0.797916435
0.802221241
0.797898734
0.802187206
0.798102891
0.802269235
0.798113496
0.802186742
0.798245105
0.801590929
0.79857466
0.801165514
0.798990003
0.800709057
0.799309015
0.800277848
0.799851769
0.80000898
0.799356879
0.799574819
0.797541727
0.797968349
0.793116659
0.797495836
0.793641624
0.803820403
0.796963541
0.797468487
0.798217727
0.797037289
0.793550338
0.72369189
0.726212288
0.72765655
0.728889419
0.729964717
0.730980494
0.731894666
0.732827663
0.733665817
0.734579712
0.735384689
0.736314065
0.737110471
0.738075761
0.738879567
0.739893663
0.740716961
0.741788657
0.742642606
0.743778668
0.744675795
0.745882421
0.746838812
0.748122831
0.749160419
0.750530277
0.751679221
0.753146058
0.754447092
0.756025908
0.75753241
0.75924397
0.761024831
0.76289919
0.765041745
0.767124959
0.769736853
0.772100866
0.775307421
0.778060247
0.781978572
0.7852567
0.789878558
0.793741946
0.798486385
0.800744654
0.801914663
0.800239161
0.802564077
0.800076588
0.803058988
0.799798394
0.802896922
0.799472278
0.802738035
0.799039103
0.802274811
0.798672601
0.802478421
0.797669899
0.802333975
0.796582277
0.802245214
0.795649748
0.802171892
0.794089656
0.801888448
0.7922014
0.801948752
0.791600321
0.803122072
0.796958405
0.803342087
0.7982276
0.796571098
0.795224448
0.791941684
0.797448062
0.79646574
0.792899195
0.730120572
0.732694621
0.734348627
0.735283625
0.736918421
0.737124823
0.739155734
0.738632069
0.741282894
0.739985925
0.743393146
0.741282894
0.745532869
0.742580155
0.747728664
0.743914027
0.749998324
0.745309776
0.752356255
0.746787887
0.754816958
0.748368821
0.757398034
0.750077265
0.760123352
0.751946296
0.763026622
0.754021456
0.766155238
0.756364511
0.769574505
0.759057125
0.7733715
0.762205519
0.777659163
0.765947681
0.782582489
0.77046438
0.788321193
0.775991603
0.795074826
0.782815924
0.802954026
0.791168937
0.811249898
0.799520079
0.81513236
0.800763951
0.814216493
0.800587338
0.814213167
0.801020886
0.813677788
0.801045499
0.813865254
0.801370603
0.813167823
0.801569907
0.812612393
0.801896363
0.811298002
0.801329419
0.809826059
0.800910619
0.808137585
0.799738479
0.805870728
0.799044569
0.804164219
0.798852737
0.801425236
0.799156996
0.802025595
0.800484248
0.800559872
0.79803928
0.793671826
0.796724974
0.793563214
0.78953378
0.724882493
0.727594375
0.729338909
0.730297713
0.731997623
0.732157614
0.734293604
0.733653509
0.736473188
0.734981948
0.738633409
0.73624502
0.740820549
0.737502111
0.743060058
0.738790047
0.745368062
0.740133439
0.747756778
0.741551122
0.750237821
0.743060923
0.752824978
0.744683917
0.755537163
0.746448777
0.758401898
0.748396374
0.761459339
0.750584483
0.764766699
0.753092492
0.768402956
0.756026525
0.772473928
0.759525644
0.777117584
0.763769157
0.782507011
0.768982653
0.788835897
0.775428585
0.796210903
0.783344343
0.803795543
0.79319008
0.807851284
0.795070917
0.807946403
0.795231731
0.807297205
0.795380023
0.807183582
0.795555827
0.806781547
0.796183977
0.806097509
0.797103923
0.805781728
0.797827508
0.80587239
0.798879567
0.805640728
0.800115647
0.805190646
0.801517029
0.805245951
0.802002323
0.805179121
0.801353717
0.805368932
0.802528374
0.804039435
0.801291343
0.796618774
0.796301931
0.796044226
0.797667794
0.798131049
0.792813125
0.726262507
0.729070877
0.730994927
0.731759334
0.733881548
0.733445055
0.736444351
0.734689286
0.738934832
0.735718675
0.741439211
0.736653233
0.743993596
0.737564297
0.746615931
0.738496779
0.749317059
0.739480908
0.752105173
0.74053962
0.754988139
0.741693921
0.757975345
0.742967425
0.761079795
0.744390752
0.764320901
0.746006096
0.76772818
0.747872014
0.771345963
0.750068552
0.77523905
0.752703462
0.779499177
0.755920512
0.784251593
0.759909782
0.789658606
0.764914499
0.795909241
0.77121398
0.803147114
0.779013077
0.810997218
0.789197818
0.814913761
0.793466306
0.814021736
0.793988791
0.81229399
0.794318664
0.811952187
0.795283901
0.811107977
0.796141987
0.809736387
0.797502496
0.809240259
0.799268248
0.807004168
0.801205521
0.8054448
0.803473215
0.804064645
0.805520316
0.802426021
0.80721228
0.800624572
0.806448089
0.79630711
0.80104644
0.79386817
0.797026774
0.798605417
0.794891922
0.796486523
0.793649549
0.794449537
0.790445273
0.727228584
0.730089186
0.731929576
0.732894431
0.734627048
0.734702245
0.736929503
0.736111921
0.739118444
0.737340473
0.741293511
0.738496539
0.743499745
0.739643056
0.745761114
0.740819565
0.748092399
0.742053247
0.750504319
0.74336563
0.753006317
0.744777393
0.75560865
0.746312395
0.7583245
0.748001514
0.761172519
0.749886438
0.764180069
0.752023356
0.767387436
0.754486617
0.770853524
0.757372901
0.774664057
0.760806536
0.778943102
0.764945255
0.783866276
0.769981235
0.789664425
0.776120208
0.796574535
0.783499932
0.804597992
0.793108211
0.809196314
0.798796454
0.809023518
0.798865804
0.808227716
0.798873159
0.807831999
0.80006286
0.806790652
0.799995988
0.806130212
0.801357798
0.805118374
0.802083786
0.804976039
0.802805526
0.8039446
0.803824815
0.803469338
0.804800068
0.803319571
0.805463671
0.802476921
0.80483478
0.803113366
0.804204023
0.799603674
0.798414144
0.793562839
0.790915476
0.796233305
0.794768246
0.792170799
0.790037343
0.73295041
0.735888238
0.737806507
0.738711643
0.740567957
0.740435173
0.742939993
0.741726651
0.745214277
0.742817338
0.747486447
0.743822455
0.749797139
0.744808896
0.752166935
0.74581868
0.754608124
0.74688062
0.75712944
0.748017485
0.759738469
0.749251206
0.762443365
0.750607311
0.765254641
0.75211919
0.768187393
0.75383231
0.771265121
0.755808441
0.77452233
0.758129401
0.778007344
0.760899987
0.781793322
0.764253241
0.785988165
0.768355639
0.790750108
0.773408648
0.796308012
0.779623487
0.803011315
0.787125968
0.811378056
0.796006826
0.817247182
0.803056955
0.817437996
0.803271189
0.816228084
0.804553096
0.815224267
0.804754429
0.814131399
0.806185873
0.813442835
0.806078163
0.811934736
0.806316869
0.810375725
0.807309513
0.80879447
0.807882067
0.806943791
0.808483871
0.80478882
0.807956946
0.802532488
0.806690114
0.799673155
0.801492645
0.800662597
0.796496334
0.801246794
0.79784686
0.795030591
0.796208552
0.790814204
0.787006495
0.733258986
0.73631451
0.738083961
0.73939522
0.740523428
0.741465179
0.742423445
0.743210539
0.744129615
0.744832858
0.745769076
0.746421526
0.747404356
0.748024908
0.749070893
0.749672553
0.750790961
0.751384862
0.752580348
0.75317839
0.754452352
0.755069493
0.756420806
0.757077427
0.758502989
0.759227471
0.760722934
0.76155445
0.763115829
0.764105857
0.765731685
0.766945452
0.768640221
0.770157723
0.771936401
0.773853704
0.77575385
0.778177727
0.780248478
0.783310358
0.785620914
0.789448706
0.792111195
0.796675365
0.800141823
0.804082728
0.807824028
0.809962345
0.807456099
0.809763174
0.809164941
0.809918706
0.808978545
0.808959291
0.808975771
0.807960582
0.80879479
0.806803438
0.808990039
0.80539261
0.809508302
0.803843801
0.809562467
0.801989024
0.810110626
0.800195161
0.810430327
0.799263044
0.809416966
0.798979577
0.807714228
0.79856193
0.800312506
0.798264636
0.792151279
0.795626818
0.795671575
0.795929952
0.795629352
0.791526272
0.741919557
0.744951091
0.746795925
0.747905304
0.749300338
0.74973333
0.751323664
0.751186797
0.753200912
0.75248347
0.755043584
0.753723042
0.756902732
0.754961104
0.758806231
0.756232217
0.760771584
0.757560333
0.762811518
0.758964766
0.764937056
0.760464324
0.767159721
0.762080736
0.769493672
0.763841876
0.771958195
0.765784849
0.774580836
0.767958594
0.777401468
0.770425661
0.780478468
0.77326284
0.7839001
0.776563581
0.787787116
0.780441658
0.792329576
0.785039382
0.797782716
0.790566704
0.804435429
0.797344332
0.812465195
0.805232203
0.820565871
0.813905206
0.82305225
0.814738896
0.821792607
0.81363339
0.821370792
0.814043946
0.820539454
0.814075335
0.819659193
0.813890691
0.817846111
0.813627956
0.816221893
0.812626823
0.814622712
0.810819401
0.811585732
0.809092831
0.807899608
0.806694044
0.803650634
0.802787975
0.799273476
0.798483932
0.796369171
0.795617407
0.795928879
0.795184996
0.794995206
0.791701639
0.788500056
0.787794443
0.746561606
0.749644467
0.751427528
0.752689613
0.753747167
0.754631639
0.755513228
0.756251931
0.757089301
0.757753007
0.758600457
0.759221003
0.760106969
0.760701785
0.761643031
0.762223227
0.763230517
0.763804567
0.764885453
0.765461466
0.766621799
0.767209458
0.768454218
0.769066962
0.770400563
0.771058428
0.772484155
0.773217738
0.774736135
0.775592489
0.777198798
0.778246089
0.779925464
0.781261833
0.782986363
0.784748954
0.786472495
0.788844157
0.790519074
0.793722202
0.795344525
0.799610764
0.801271329
0.806721152
0.808596988
0.814532632
0.817181711
0.821352487
0.819467711
0.821843732
0.819667013
0.821852566
0.819334636
0.821176676
0.818367142
0.819777912
0.818664804
0.81814969
0.817739568
0.816592334
0.817273698
0.814521745
0.81604792
0.811439464
0.814765632
0.808316709
0.812456266
0.804592542
0.808992947
0.801729305
0.806150337
0.799369668
0.800216164
0.798057639
0.795124467
0.795667632
0.795788904
0.795737779
0.791275655
0.78996991
0.753031546
0.756092094
0.757899583
0.759054491
0.760200185
0.760842833
0.761975663
0.762289637
0.763585855
0.763603517
0.765147212
0.764873749
0.766713986
0.766148376
0.768316772
0.76745671
0.769975672
0.768818891
0.771706311
0.770251099
0.773523376
0.771769145
0.775443377
0.77339157
0.777487417
0.775142937
0.779684082
0.777059541
0.782073214
0.779187188
0.784708152
0.781595904
0.787658638
0.784381346
0.791011748
0.78767669
0.794873016
0.791661339
0.79936076
0.79655259
0.804632166
0.802538222
0.810909486
0.809549502
0.818543792
0.816880491
0.827643244
0.824165668
0.830154579
0.824802618
0.829475445
0.825030383
0.829391901
0.825158689
0.829514717
0.824358857
0.827294408
0.823218611
0.825314022
0.821198993
0.823233813
0.81952275
0.819735335
0.816450679
0.815198157
0.812920096
0.810331102
0.807495547
0.806508115
0.801182278
0.801290172
0.798115629
0.797368644
0.794956358
0.798085023
0.798449079
0.79368417
0.791679386
0.789194957
0.78846535
0.760525413
0.763536945
0.765275812
0.766470824
0.767392811
0.768252062
0.768952647
0.769732685
0.770327247
0.771107497
0.771637396
0.772455382
0.772940502
0.773817683
0.774269316
0.775219673
0.775645227
0.776679195
0.777084477
0.778211379
0.778601964
0.779831517
0.780214128
0.781556352
0.781941717
0.783409409
0.783813381
0.785422046
0.785869717
0.787635181
0.788166802
0.790106953
0.790786149
0.792913665
0.793829976
0.796150508
0.797429158
0.799948086
0.801746741
0.804489049
0.806961237
0.810021561
0.813218102
0.816819306
0.820574987
0.824842193
0.829295806
0.83275066
0.83354194
0.833251079
0.83245923
0.832814665
0.831280523
0.83196917
0.830701107
0.830314926
0.829808925
0.828043722
0.828218413
0.824968047
0.825721343
0.820294101
0.822342744
0.815444141
0.818781304
0.809888169
0.813839888
0.804211989
0.808628149
0.800089162
0.804428068
0.796827819
0.797486775
0.796856619
0.793107407
0.796187712
0.794443143
0.792367625
0.791316775
0.791231035
0.769457078
0.772362142
0.774088062
0.775153317
0.776143674
0.776742513
0.777686345
0.778017212
0.779075698
0.779175136
0.780420684
0.780297305
0.781770986
0.781427108
0.78315453
0.782591654
0.784589671
0.783810509
0.786090514
0.785100515
0.787669937
0.786479301
0.789341868
0.787967218
0.791124689
0.789590427
0.793040784
0.791385763
0.795120524
0.793401787
0.797408172
0.795701614
0.799966307
0.798364007
0.802877176
0.801484324
0.806252858
0.805182591
0.810246903
0.809617065
0.815066141
0.815019171
0.820978547
0.821687034
0.828255542
0.829689421
0.837086164
0.838021731
0.842283707
0.839730697
0.841359884
0.839362218
0.839889017
0.837468139
0.838341854
0.836904698
0.836141026
0.834991814
0.833674817
0.831880176
0.828502189
0.827268419
0.82392596
0.821786213
0.818160126
0.815424918
0.812317424
0.809686792
0.806440508
0.803309815
0.800737535
0.799089967
0.79713992
0.794591107
0.796991599
0.796156189
0.793867428
0.790538807
0.786228624
0.7880219
0.781588613
0.784269261
0.785856985
0.786907328
0.787636446
0.788415126
0.788888259
0.789666696
0.789973194
0.790837417
0.791000866
0.791994016
0.792022771
0.793171119
0.793068875
0.794390538
0.794159556
0.795668601
0.795311082
0.797020844
0.796538949
0.798462295
0.797860272
0.800008901
0.799296524
0.801685584
0.800875067
0.803524419
0.802632036
0.805569042
0.804616211
0.807878286
0.806891637
0.810528804
0.809542001
0.813615465
0.812684539
0.817249223
0.81648947
0.821550864
0.821202762
0.826662325
0.827095899
0.832850512
0.834211473
0.840538611
0.842645174
0.849119838
0.848648244
0.85016081
0.847659128
0.848533497
0.846259359
0.844400062
0.844447192
0.843452475
0.840310971
0.838988596
0.837014208
0.832580702
0.832313374
0.82675079
0.826880344
0.81948854
0.82104027
0.812036612
0.814250503
0.804526416
0.808058985
0.799679646
0.801544658
0.796711526
0.797184372
0.795934774
0.794847927
0.797091155
0.794534068
0.793574272
0.791249055
0.791538381
0.796163844
0.798441879
0.799916405
0.800749529
0.801529196
0.801925118
0.80270242
0.802832946
0.803763702
0.803645764
0.804801205
0.804430252
0.805853865
0.805222184
0.806944773
0.806045053
0.808091345
0.806917068
0.809308948
0.807854738
0.810613383
0.808875656
0.812022751
0.810000825
0.813559267
0.811257725
0.815251941
0.812683641
0.817138808
0.81432921
0.819269086
0.816263058
0.821704062
0.818577978
0.824515232
0.821400197
0.827778463
0.824900148
0.83156615
0.82928807
0.835953706
0.834714543
0.841112411
0.840919265
0.847476588
0.847288702
0.854757909
0.854229982
0.860440908
0.856050869
0.858647555
0.855824106
0.854215053
0.852517095
0.850062314
0.846513501
0.847047317
0.843819648
0.841570717
0.838572441
0.834437983
0.830886927
0.827472352
0.823342857
0.819769495
0.816123489
0.812365415
0.808681588
0.806101712
0.801931188
0.80083992
0.797968596
0.79494137
0.79219796
0.794266799
0.794370996
0.791567554
0.788659831
0.787169789
0.788949069
0.815863204
0.81734978
0.818488068
0.819243004
0.8196632
0.820261061
0.820419436
0.821136857
0.821086587
0.822005745
0.82174259
0.822901551
0.822409087
0.823832507
0.823080558
0.824790227
0.823745019
0.825778997
0.824419576
0.826816671
0.825129566
0.827921632
0.825902639
0.829114666
0.826771629
0.83041844
0.827774561
0.831859022
0.828963471
0.833468715
0.830409418
0.835284661
0.832204976
0.837346486
0.834464964
0.839696859
0.837321162
0.842395482
0.840893271
0.845566987
0.845208259
0.849500354
0.850076942
0.854696591
0.855119832
0.861728818
0.860668763
0.869445695
0.867094524
0.869774023
0.868717173
0.86302922
0.862962098
0.861463727
0.858096299
0.854842943
0.851547696
0.84644742
0.844591602
0.838054028
0.836749086
0.829457529
0.828633477
0.819974628
0.821051353
0.81177239
0.813387195
0.804213077
0.806237006
0.799559958
0.800148328
0.798254087
0.796123181
0.79636309
0.794125196
0.794647775
0.793351867
0.791198706
0.789043586
0.791323485
0.824736796
0.826324676
0.827582356
0.828245176
0.828897759
0.829102013
0.829815262
0.829699523
0.830647521
0.830202048
0.831466468
0.830667913
0.83229963
0.831126283
0.83316171
0.831594688
0.834062685
0.832085808
0.835011394
0.832611294
0.836016858
0.83318421
0.837089197
0.833821822
0.8382408
0.834548871
0.839487744
0.835402105
0.840853222
0.836435576
0.842372953
0.837723203
0.84410095
0.839354575
0.846116701
0.841422791
0.84853809
0.844003018
0.851546542
0.84712548
0.855423757
0.850784106
0.860571881
0.855127796
0.867418258
0.861076229
0.876153852
0.870247287
0.880386175
0.875621163
0.873885941
0.869273656
0.871059189
0.862433406
0.862716051
0.854875723
0.854569668
0.846888726
0.846290383
0.839446424
0.837351166
0.829655276
0.827929184
0.821503896
0.819016043
0.813602597
0.810708678
0.807100898
0.803354303
0.801171311
0.797648856
0.79700185
0.794598636
0.791356252
0.795029823
0.794206105
0.790909679
0.789860391
0.78725855
0.788895786
0.827775782
0.829714636
0.831083138
0.83197184
0.832440156
0.833131199
0.833250734
0.834071749
0.833889617
0.834949838
0.83445706
0.835813519
0.834995147
0.836683996
0.835525671
0.837573262
0.836061461
0.838489941
0.836611366
0.839441933
0.83718316
0.840437983
0.837785727
0.84148897
0.838431255
0.842609457
0.839138225
0.84382054
0.839936029
0.845154767
0.840870768
0.846663499
0.842009113
0.848424464
0.843435936
0.850546912
0.845247481
0.853172962
0.847549584
0.856466028
0.85047153
0.86054853
0.854225407
0.865352964
0.859233138
0.870444319
0.866150271
0.87510094
0.873608325
0.877087672