/*--------------------------------*- C++ -*----------------------------------*\
| =========                 |                                                 |
| \\      /  F ield         | OpenFOAM: The Open Source CFD Toolbox           |
|  \\    /   O peration     | Version:  v2006                                 |
|   \\  /    A nd           | Website:  www.openfoam.com                      |
|    \\/     M anipulation  |                                                 |
\*---------------------------------------------------------------------------*/
FoamFile
{
    version     2.0;
    format      ascii;
    class       volScalarField;
    location    "0.0703000019";
    object      T;
}
// * * * * * * * * * * * * * * * * * * * * * * * * * * * * * * * * * * * * * //

dimensions      [0 0 0 1 0 0 0];


internalField   nonuniform List<scalar> 
14400
(
330.671724
328.317461
327.0517
325.939237
324.900498
323.902107
322.92627
321.960907
320.998068
320.030968
319.055074
318.065818
317.060522
316.035688
314.989775
313.91905
312.822597
311.697125
310.546273
309.368741
308.175295
306.964791
305.760715
304.558485
303.230022
300.437319
298.091601
296.818779
296.502233
296.137243
297.018317
297.786457
298.841721
300.89159
301.089117
300.948901
300.068933
299.383048
299.999023
300.02888
299.692707
300.281771
299.789601
300.023641
299.950623
300.038709
299.656328
300.075471
299.815821
300.167285
299.893016
300.129131
299.912117
300.109405
299.933885
300.055003
299.981818
299.996854
299.946734
299.916203
299.916433
299.852724
299.861947
299.815512
299.818456
299.776793
299.799806
299.77161
299.821316
299.801317
299.885089
299.44521
300.078801
300.424371
300.053652
300.179703
299.571764
299.563391
300.069137
300.040408
329.768559
328.539464
327.878749
327.279271
326.701079
326.126682
325.547588
324.957924
324.354922
323.734997
323.096074
322.434385
321.747779
321.032009
320.284544
319.500608
318.677085
317.808051
316.889223
315.913415
314.875136
313.765882
312.579023
311.304691
309.935162
308.460057
306.896773
305.272248
303.62778
301.990706
300.456071
299.033235
297.817828
296.105595
297.666552
298.401349
299.403211
299.565719
298.703975
298.986151
299.184007
298.434738
299.475789
298.694462
299.039393
298.997681
299.226649
298.856935
299.103907
298.773032
299.100852
298.790042
299.058631
298.799728
299.099182
298.828636
299.085471
298.807669
299.1036
298.790652
299.07847
298.788097
299.023006
298.733665
298.95537
298.763907
298.951319
298.842917
299.148689
299.092699
299.422986
300.162767
299.500803
298.956065
298.063
299.562588
299.911417
299.677179
298.926436
299.681477
329.768696
328.655523
328.056759
327.513629
326.991664
326.476844
325.962966
325.445604
324.922497
324.390669
323.848486
323.292998
322.722531
322.133839
321.524942
320.892121
320.23283
319.542739
318.818459
318.054952
317.247671
316.390843
315.478417
314.504067
313.459987
312.34012
311.135314
309.842367
308.452448
306.970593
305.392542
303.743018
302.032569
300.344843
298.952501
297.856762
298.446422
297.513341
299.188995
297.57219
299.171617
297.884285
298.588584
298.285941
298.602259
297.911627
299.006178
297.849933
298.928328
297.888966
298.899956
298.001595
298.900198
298.118266
298.788855
298.24223
298.662266
298.402013
298.714286
298.561072
298.657499
298.594643
298.598793
298.640857
298.563014
298.711927
298.537406
298.826696
298.582762
299.152526
298.675527
299.465973
298.211969
299.608746
299.016481
298.921361
298.396776
299.329376
299.042965
298.97319
330.39032
329.321007
328.744733
328.221852
327.720376
327.227966
326.739108
326.250055
325.758442
325.261844
324.758321
324.24586
323.72241
323.186273
322.634895
322.066908
321.478749
320.869506
320.233939
319.57193
318.875655
318.146462
317.37263
316.55821
315.685559
314.763652
313.765766
312.710032
311.555595
310.338327
308.99498
307.598124
306.048091
304.502314
302.801595
301.317712
299.758037
298.689281
298.999598
298.420254
299.287022
298.355491
299.513759
298.245167
299.658503
298.404068
299.272512
298.833862
299.232784
298.863068
299.262116
298.82522
299.239315
298.777268
299.262557
298.834057
299.220369
298.810141
299.094303
298.821076
298.975086
298.904139
298.855806
299.039019
298.736418
299.195144
298.702195
299.399654
298.795898
299.848971
299.028589
299.79497
299.166108
299.711049
298.179142
298.975101
298.935
299.052524
298.421261
298.487751
329.867937
328.809979
328.237785
327.718721
327.222037
326.736664
326.257142
325.780092
325.30261
324.822552
324.337418
323.845704
323.344906
322.834103
322.3104
321.773459
321.219486
320.648835
320.05615
319.442784
318.800937
318.133592
317.429253
316.693672
315.909757
315.088005
314.202719
313.272637
312.258557
311.193988
310.017984
308.792035
307.418833
306.017463
304.425096
302.895018
301.119749
299.733959
298.04189
297.332962
297.814227
297.524172
297.383428
297.740095
297.549485
297.605243
297.978143
297.399846
297.918352
297.223065
297.606222
297.285362
297.641524
297.55913
297.682169
297.722306
297.576012
298.073299
297.762029
298.303355
297.852585
298.525821
297.902386
298.7081
298.089437
298.921724
298.219139
299.172883
298.270927
299.191404
298.280031
299.804157
298.484223
298.63099
298.356759
297.789017
298.17675
299.067952
299.144334
298.682969
330.627376
329.572016
328.998656
328.478976
327.983288
327.501488
327.027907
326.559291
326.092053
325.624223
325.152643
324.676253
324.191954
323.699541
323.195539
322.680599
322.15032
321.606328
321.042604
320.462075
319.85619
319.229831
318.570643
317.886618
317.159722
316.40301
315.589854
314.741665
313.818534
312.855982
311.793045
310.690056
309.45174
308.184883
306.734466
305.304022
303.623721
302.1355
300.278352
299.348886
297.143553
299.087271
297.432952
298.678562
297.878152
298.295769
297.563197
298.71923
297.810069
298.97286
297.810504
299.016149
297.889702
298.919112
297.910293
298.869494
298.144926
298.64769
297.862407
298.712257
297.939183
298.710339
298.027672
298.762933
298.139348
298.818904
298.289501
298.814446
298.473719
298.73172
298.407414
297.834875
298.527741
299.2069
299.264421
298.288645
298.68852
298.857191
298.254133
298.849976
330.145702
329.107782
328.540508
328.027047
327.539266
327.067683
326.606584
326.152293
325.701055
325.250362
324.797293
324.340119
323.87651
323.405218
322.924256
322.432547
321.928231
321.410076
320.876189
320.324841
319.754017
319.161106
318.543986
317.898697
317.223184
316.51149
315.76204
314.965904
314.122803
313.219275
312.257977
311.218416
310.109639
308.90022
307.613064
306.200182
304.716181
303.090552
301.449684
299.727324
297.937344
298.121162
296.867601
297.9829
296.771156
298.552771
296.78444
298.164449
296.639365
298.089767
296.916204
298.03907
297.000073
298.053623
297.027213
298.045004
297.062522
298.214335
297.389893
298.396725
297.665684
298.476812
297.936155
298.452757
298.243723
298.486373
298.492209
298.426434
298.597204
298.206938
298.834822
298.267652
299.412173
298.05508
298.12019
298.19297
298.451614
299.829291
299.18808
299.158171
331.343644
330.298293
329.723882
329.205299
328.715533
328.244889
327.787518
327.338817
326.89501
326.452771
326.009546
325.562825
325.110994
324.65192
324.184702
323.707136
323.218914
322.717281
322.202533
321.670797
321.123148
320.553877
319.965244
319.348721
318.708544
318.031936
317.326495
316.572985
315.784747
314.932508
314.039522
313.060497
312.036287
310.895215
309.710985
308.366452
307.001719
305.415121
303.899899
302.071327
300.672437
298.987467
298.255654
298.735464
298.290372
298.485197
298.424079
298.442629
298.759499
298.79492
298.837252
298.855371
298.73772
298.843088
298.762856
298.88909
298.885822
298.883952
298.756542
298.656545
298.684507
298.689825
298.757628
298.768043
298.774059
298.886973
298.799153
298.880352
298.780672
298.812849
298.298314
298.12063
298.578917
299.490711
300.03792
299.44085
298.021104
298.665923
298.75627
299.112482
330.659163
329.622672
329.049413
328.534003
328.050558
327.588896
327.14288
326.706955
326.277373
325.850051
325.422852
324.992546
324.558224
324.116943
323.66879
323.210564
322.743281
322.262926
321.771546
321.263648
320.742608
320.200607
319.642923
319.058252
318.454774
317.816029
317.154775
316.446879
315.712419
314.915631
314.088474
313.17709
312.233245
311.174197
310.086145
308.838101
307.581011
306.096497
304.674115
302.906987
301.468163
299.293288
299.16322
297.350999
298.907944
297.836774
298.468348
298.031503
298.133759
297.734036
298.166015
297.934198
298.258462
297.933889
298.31938
298.014705
298.185501
297.960984
298.477947
298.29938
298.453605
298.581723
298.414281
298.772429
298.278603
299.000258
298.149265
299.090238
298.066805
299.077171
298.234649
299.338541
298.298613
298.177177
298.058711
298.359066
299.279692
299.346323
299.086593
299.054611
331.997123
330.946195
330.361444
329.838732
329.352128
328.890705
328.447232
328.015629
327.591346
327.170418
326.749915
326.327286
325.900505
325.46796
325.027968
324.579598
324.121033
323.651927
323.169841
322.675069
322.16397
321.637705
321.090673
320.525388
319.933237
319.318984
318.669456
317.993239
317.270178
316.51537
315.697717
314.843479
313.90393
312.924995
311.828609
310.696651
309.400564
308.091432
306.550274
305.072687
303.27425
301.788571
300.158587
298.855192
299.342709
298.589744
299.850491
298.407433
300.163664
298.833436
300.057451
298.736901
299.978656
298.895961
299.880076
298.997524
299.881359
299.363195
299.460985
299.432647
299.177017
299.503653
298.934334
299.727133
298.684756
299.854522
298.539169
299.94606
298.430793
299.927602
298.204741
299.781623
298.322895
298.990019
299.614309
298.270875
298.041135
297.966952
298.308297
298.526616
331.462109
330.428842
329.849885
329.336846
328.863447
328.418035
327.992118
327.579452
327.174731
326.774351
326.374775
325.974077
325.569579
325.160499
324.744373
324.321322
323.888559
323.447073
322.9932
322.52893
322.049062
321.556912
321.044865
320.51817
319.965594
319.395355
318.790874
318.165073
317.493426
316.796413
316.037476
315.249396
314.376929
313.473372
312.453523
311.406384
310.196481
308.979587
307.529153
306.142297
304.401397
302.980914
300.894201
299.983434
299.107532
299.577458
298.867403
299.815704
298.445412
299.476631
298.541832
299.57254
298.711916
299.706799
298.828726
299.713876
298.917815
299.634188
299.172531
299.66906
299.289792
299.657926
299.339667
299.731332
299.336037
299.648367
299.336301
299.579089
299.394174
299.56349
299.418916
299.37666
298.877629
299.209153
298.399579
298.845449
299.487106
298.923362
298.593672
298.473346
332.265299
331.168769
330.552154
330.010971
329.516593
329.054991
328.61607
328.192435
327.778263
327.369366
326.96219
326.554338
326.143448
325.728168
325.306702
324.878337
324.44143
323.995675
323.539249
323.072114
322.591943
322.098878
321.589725
321.064775
320.519535
319.954486
319.363313
318.746842
318.096265
317.413068
316.685063
315.914922
315.085857
314.202639
313.242251
312.213372
311.084704
309.873159
308.536484
307.11298
305.543321
303.94274
302.177896
300.87944
299.145538
300.361693
299.544262
299.986282
299.964092
300.090308
299.91581
300.065946
299.749921
300.031126
299.859931
300.042634
299.885352
299.969064
299.795806
300.041566
299.85384
299.987041
299.927003
299.921359
300.067598
299.833764
300.237747
299.749937
300.422327
299.636445
300.524288
300.353699
300.082058
299.340392
298.81516
299.413838
298.633517
298.208873
299.302459
298.952139
331.315508
330.184527
329.545165
328.990422
328.48896
328.024063
327.584251
327.161031
326.748384
326.341472
325.937048
325.532042
325.124771
324.712957
324.295936
323.871617
323.440129
322.999089
322.54938
322.087846
321.616234
321.130034
320.632132
320.115893
319.585843
319.03216
318.461857
317.860398
317.238696
316.575211
315.887057
315.142126
314.367579
313.515
312.628287
311.633133
310.602733
309.420091
308.213669
306.791005
305.398612
303.690334
302.222064
300.22246
299.279324
298.782591
298.657141
299.172934
298.393451
299.125551
298.468755
299.090876
298.755554
299.058122
298.795828
299.034642
298.780059
299.235192
299.03155
299.156353
299.16402
299.29211
299.280127
299.328889
299.425432
299.29353
299.542153
299.245603
299.626167
299.136999
299.361874
298.25375
298.969038
298.920967
298.632853
299.48116
299.554698
298.639056
298.854608
298.964369
332.317511
331.159213
330.501176
329.937197
329.432594
328.967833
328.529899
328.109591
327.700362
327.297335
326.896844
326.496131
326.092909
325.685588
325.272509
324.852807
324.424984
323.988689
323.542217
323.085657
322.61673
322.13598
321.640135
321.13031
320.601705
320.056257
319.48694
318.89696
318.2761
317.629574
316.942567
316.223477
315.450751
314.637881
313.753262
312.818848
311.787767
310.69712
309.476459
308.193254
306.738751
305.251468
303.552984
301.986236
300.234663
300.104611
299.714741
299.874798
299.977745
299.773935
300.138438
299.810861
300.044545
299.810028
299.953366
299.955997
299.89018
300.00905
299.905805
299.938758
299.872037
299.901229
299.756851
299.78744
299.76065
299.715854
299.794513
299.4964
299.72458
299.134712
299.890676
299.49545
300.422106
298.389782
298.766328
298.945528
298.015843
298.840275
298.806895
298.771921
331.874411
330.723053
330.065064
329.510091
329.019178
328.570085
328.148627
327.745139
327.35297
326.967103
326.584053
326.200835
325.815558
325.426157
325.031677
324.630373
324.221928
323.804496
323.37829
322.940975
322.493304
322.032017
321.558548
321.068153
320.563249
320.036862
319.492961
318.92128
318.328333
317.698967
317.043901
316.340556
315.606617
314.807851
313.973697
313.051041
312.089845
311.005342
309.88564
308.590546
307.285669
305.72753
304.258653
302.425726
301.023066
299.753478
299.777936
299.912573
299.592925
299.925044
299.487451
299.949274
299.627825
299.94098
299.725492
299.896541
299.931431
299.828678
299.982644
299.759409
300.155511
299.577816
300.141581
299.26364
300.179116
298.919268
300.162424
298.45756
300.051708
298.223143
299.612163
297.743918
298.778482
299.859926
299.101508
299.803069
298.7436
299.35668
298.635836
298.751351
332.739475
331.551408
330.87152
330.307655
329.814733
329.366757
328.9483
328.548713
328.161372
327.780724
327.403652
327.026661
326.648418
326.266261
325.879981
325.487071
325.088201
324.680515
324.26554
323.839565
323.40512
322.957025
322.499149
322.024007
321.537415
321.028404
320.505793
319.953388
319.384831
318.77602
318.148515
317.466006
316.763204
315.984316
315.186274
314.281285
313.36463
312.294208
311.233956
309.945903
308.724572
307.15209
305.802228
303.868635
302.734582
300.731385
301.287734
300.363422
301.593631
300.552428
301.537443
300.52762
301.656316
300.637364
301.48276
300.614903
301.530004
300.518268
301.360505
300.419341
301.397152
300.326818
301.301412
300.16148
301.165789
299.880084
300.871439
299.684675
300.486713
299.466482
300.63642
300.196396
300.355257
299.870878
298.594964
299.474811
298.562544
299.783675
299.245891
299.124299
331.657768
330.401214
329.681875
329.096225
328.590106
328.133076
327.70789
327.302995
326.911345
326.527114
326.147075
325.767642
325.387477
325.003906
324.616757
324.22358
323.825094
323.41858
323.005597
322.582694
322.152367
321.709892
321.258942
320.792823
320.31679
319.821253
319.313708
318.780399
318.232138
317.649229
317.047519
316.398792
315.726717
314.990541
314.22645
313.374451
312.491901
311.487177
310.456757
309.251455
308.05025
306.580972
305.239453
303.412832
302.346899
299.621528
300.743085
298.936386
300.5763
298.942431
300.671191
299.016543
300.547265
299.2528
300.485391
299.38561
300.624101
299.523893
300.664006
299.674991
300.541359
299.874949
300.674744
300.041991
300.710117
300.222331
300.71394
300.187982
300.459414
300.099532
299.363113
299.349578
298.399155
300.367448
299.820122
300.735745
299.785306
299.767791
299.569051
299.482808
332.164878
330.85117
330.098766
329.496934
328.982
328.519204
328.089859
327.681516
327.286939
326.899924
326.517264
326.135151
325.752279
325.365875
324.975712
324.579413
324.177464
323.767491
323.350522
322.923885
322.489073
322.042814
321.587054
321.11757
320.636798
320.139121
319.627578
319.094584
318.543993
317.965532
317.364211
316.726181
316.058036
315.341387
314.584697
313.764447
312.890485
311.935304
310.907496
309.781473
308.55828
307.22893
305.786269
304.246058
302.737009
300.540552
301.097646
299.230221
301.201045
299.352417
301.547094
299.619521
301.308236
299.50551
301.252074
299.680538
301.143967
299.747263
300.723274
299.902182
300.739978
300.206414
300.66933
300.50459
300.544856
300.88721
300.303666
301.152378
299.979425
300.858421
299.798322
300.906947
298.707389
299.558082
298.479284
299.162219
299.526538
299.881039
299.823886
299.712785
331.757127
330.436103
329.67793
329.08481
328.582749
328.134005
327.718691
327.324503
326.943726
326.570719
326.201681
325.833607
325.464303
325.092122
324.715511
324.333707
323.945233
323.550068
323.146346
322.734848
322.312816
321.882066
321.438306
320.984826
320.514907
320.034057
319.531835
319.017192
318.474036
317.916764
317.320684
316.708857
316.043405
315.361192
314.603945
313.830567
312.951114
312.059992
311.01793
309.97791
308.723264
307.507834
305.992182
304.606689
302.841034
300.9384
300.941699
298.910858
300.725507
299.149801
300.788525
299.318844
300.658011
299.423105
300.619468
299.725873
300.56932
299.855195
300.503517
300.135871
300.295661
300.337733
300.265592
300.587322
300.307975
300.800591
300.244984
300.911531
299.95591
301.001896
298.80512
300.842888
297.981037
299.99204
299.653188
299.932086
299.655532
299.198368
298.722445
299.243883
332.479977
331.127544
330.352252
329.758384
329.260675
328.817938
328.409283
328.022051
327.648395
327.282678
326.921022
326.560559
326.198921
325.834752
325.46614
325.092852
324.712748
324.326717
323.931758
323.530151
323.117275
322.69735
322.263107
321.821614
321.361482
320.894089
320.401736
319.902477
319.368949
318.829697
318.242417
317.65256
316.994114
316.340452
315.586965
314.853783
313.971888
313.14198
312.084416
311.143133
309.841346
308.792232
307.144023
306.056978
303.851014
302.901608
301.577926
300.458608
301.442979
300.500927
301.401911
300.473928
301.35528
300.599375
301.486709
300.60805
301.369338
300.651863
301.260392
300.768038
301.139034
300.891854
301.001054
301.079391
300.774149
301.310373
300.470862
301.341797
300.061474
301.222302
300.269765
301.258099
299.577758
299.614976
298.877773
299.332071
299.313987
300.336696
299.165116
299.103969
332.039093
330.660421
329.870461
329.279287
328.788562
328.354175
327.954003
327.575497
327.21036
326.853358
326.500204
326.148491
325.795419
325.440099
325.080188
324.715882
324.344669
323.967761
323.581946
323.189594
322.786216
322.37566
321.951451
321.51942
321.070187
320.612292
320.132257
319.642342
319.123453
318.592958
318.024156
317.441416
316.80773
316.157372
315.438541
314.701153
313.870586
313.021502
312.04037
311.054474
309.865389
308.728329
307.237756
305.993224
304.003673
303.114401
300.976936
300.667746
301.004935
300.657236
300.710813
300.387221
300.825112
300.389515
300.626587
300.388497
300.633477
300.550213
300.796329
300.437285
300.820845
300.331052
300.906723
300.179066
301.030052
300.037124
301.026417
299.989009
300.854387
300.048383
299.353514
300.432068
299.069699
299.792958
299.398294
300.27294
299.10395
299.001636
298.934105
299.2529
333.008452
331.642541
330.859359
330.287257
329.817035
329.402509
329.021454
328.661328
328.314121
327.974631
327.638809
327.304214
326.968229
326.629887
326.28698
325.939603
325.585338
325.225291
324.856297
324.480644
324.093825
323.699664
323.291565
322.87546
322.441667
321.999066
321.533556
321.058177
320.552642
320.035806
319.478988
318.908846
318.285941
317.646491
316.938715
316.207711
315.391514
314.538409
313.585507
312.567943
311.445245
310.214253
308.877978
307.417023
305.798485
304.441255
302.656122
301.625755
301.730368
301.51043
301.937855
301.340994
302.016455
301.495537
302.229191
301.311618
301.976787
301.490906
302.084278
301.484554
301.785881
301.412459
301.579054
301.361212
301.190677
301.213292
300.656873
301.04
300.090085
300.686243
300.014968
300.3552
299.156582
299.595943
297.968015
298.442574
299.021585
299.233586
298.435155
298.876461
332.822559
331.453238
330.668734
330.109716
329.65477
329.255597
328.889567
328.544138
328.211463
327.88633
327.564975
327.244757
326.923511
326.599794
326.272133
325.939756
325.601412
325.256791
324.90452
324.544707
324.175503
323.797531
323.407984
323.008292
322.59395
322.167814
321.722461
321.263426
320.778342
320.277852
319.740898
319.187958
318.582573
317.963628
317.267637
316.566706
315.750173
314.948555
313.97173
313.048585
311.860778
310.796657
309.334591
308.133484
306.32989
305.240983
302.916491
302.535161
302.367523
302.17833
302.105326
302.185712
302.125457
302.050069
301.963176
302.186671
302.026103
302.022728
301.963681
301.942833
301.743453
301.612732
301.632655
301.416207
301.409404
301.038736
301.115978
300.64152
300.664363
300.279354
299.454128
300.148153
299.813728
299.681801
299.360566
299.759401
298.648173
298.589681
297.874995
298.669784
333.468107
332.113568
331.336908
330.797562
330.363081
329.983529
329.636351
329.308991
328.994043
328.686161
328.382092
328.078821
327.774851
327.468056
327.157921
326.842562
326.52216
326.194667
325.860886
325.518248
325.168234
324.807358
324.43794
324.055071
323.662192
323.252281
322.830515
322.386845
321.928333
321.441364
320.935635
320.39304
319.825799
319.212151
318.563958
317.861013
317.104938
316.291834
315.388893
314.442317
313.340295
312.229139
310.874763
309.554105
307.969227
306.491522
304.693321
303.465551
303.100361
302.864159
303.258185
302.980002
303.103895
302.758601
303.238576
302.737818
303.079091
302.443847
302.964412
302.269838
302.594456
302.145024
302.072559
301.985265
301.46434
301.554812
300.781028
300.953844
300.315376
300.16196
300.322425
299.232139
299.402271
299.480926
298.374247
298.523413
298.555669
299.162128
298.173828
298.612736
333.315893
332.00194
331.245244
330.734165
330.326967
329.973118
329.650149
329.346099
329.053616
328.767936
328.485592
328.204209
327.921787
327.637024
327.348553
327.055631
326.757138
326.452645
326.141049
325.822082
325.494484
325.158011
324.81119
324.453565
324.083417
323.699738
323.300729
322.884167
322.448758
321.989594
321.507725
320.993101
320.452182
319.86471
319.248391
318.564776
317.85282
317.043016
316.209371
315.235908
314.243751
313.066861
311.861261
310.461318
308.990039
307.430153
305.623302
304.309689
303.973837
303.826913
304.074871
303.811218
304.122253
303.604669
303.387474
303.423406
303.393195
303.208155
302.952664
302.799804
302.759341
302.308357
302.308732
301.682566
301.779859
301.003711
301.163282
300.351657
300.47088
299.845041
299.912894
299.396162
299.870054
299.258526
299.064427
299.228839
298.068554
297.986329
297.569021
298.55645
334.112891
332.852978
332.121069
331.640704
331.26239
330.935309
330.637336
330.35706
330.087342
329.823896
329.563166
329.303303
329.041903
328.778386
328.51059
328.238864
327.960748
327.677505
327.3859
327.088288
326.780112
326.465161
326.13687
325.800979
325.447997
325.086401
324.702528
324.308654
323.885246
323.449895
322.975086
322.486054
321.944301
321.385575
320.756778
320.10785
319.366847
318.602331
317.71759
316.807973
315.739301
314.657843
313.353849
312.09572
310.495679
309.116349
307.041634
305.758445
304.881683
304.996073
304.939469
304.840198
304.778038
304.601007
304.424884
304.375295
304.11655
303.975465
303.763783
303.619102
303.120061
303.134072
302.480654
302.57188
301.70516
301.754821
300.890723
301.03115
300.156894
300.075807
299.830816
299.054635
298.947491
299.341335
298.436487
298.107064
298.28355
298.600757
297.429861
298.268296
334.188602
333.048211
332.369616
331.939616
331.606627
331.320891
331.061454
330.817627
330.583086
330.35373
330.126693
329.899875
329.671678
329.440814
329.206257
328.967074
328.722504
328.471745
328.214123
327.948833
327.67517
327.392222
327.099028
326.794602
326.477409
326.146504
325.799272
325.435107
325.049431
324.642804
324.2072
323.745893
323.245113
322.713171
322.127512
321.504229
320.809612
320.066845
319.236894
318.333791
317.345592
316.222661
315.060582
313.652319
312.284251
310.601796
308.83852
307.34572
306.313755
306.217943
305.916126
305.936309
305.602826
305.51415
305.434404
305.076357
305.117413
304.492035
304.029161
303.707376
303.51094
303.053577
302.760749
302.055717
301.956621
301.108239
301.098899
300.173213
300.366782
299.456867
299.887495
298.692608
299.966615
299.131207
299.070105
298.95102
297.834695
297.760669
297.350412
298.406746
335.133855
334.174274
333.567998
333.197936
332.918196
332.680777
332.466206
332.264725
332.070903
331.881017
331.692785
331.504133
331.313941
331.120669
330.923788
330.721851
330.514723
330.300801
330.080279
329.851182
329.614023
329.366239
329.108685
328.837948
328.555245
328.256031
327.941852
327.606842
327.252705
326.872312
326.466803
326.028814
325.556535
325.046076
324.485723
323.885751
323.20634
322.498893
321.65313
320.820801
319.737063
318.757598
317.349522
316.154321
314.417823
312.948736
311.173506
309.279585
308.228656
307.419989
307.419598
307.12925
306.700827
306.790886
306.420861
305.56201
305.832632
305.183342
304.745713
304.467499
303.872236
303.568763
302.845715
302.602089
301.763566
301.688557
300.775191
300.659237
300.066542
299.623148
299.370221
298.127898
298.230124
298.825171
298.093909
297.777767
297.974261
298.451171
297.442961
298.256938
335.434093
334.827568
334.352868
334.064789
333.853858
333.676004
333.513041
333.356095
333.200957
333.045335
332.888123
332.728391
332.566277
332.401876
332.236571
332.070075
331.902353
331.731365
331.557022
331.376728
331.191092
330.996402
330.794203
330.578844
330.354075
330.110863
329.856624
329.575902
329.283168
328.951457
328.60912
328.208089
327.803554
327.308509
326.82861
326.206183
325.637411
324.843469
324.169137
323.151175
322.338859
321.051599
320.024396
318.463201
317.080145
315.267072
313.247645
311.643302
309.937601
309.086339
308.889711
307.874019
307.828647
307.740228
307.307438
306.836932
306.121988
305.64381
305.060614
304.294087
304.08481
303.31484
302.888347
301.972693
301.899915
300.933054
300.930779
299.935532
300.08776
299.289771
300.284394
298.722067
299.860378
299.103068
298.504466
298.323506
297.430932
297.846229
297.023024
298.290941
336.037375
335.387092
334.888989
334.593527
334.382738
334.210171
334.057152
333.915265
333.779452
333.647293
333.516236
333.385701
333.253588
333.120382
332.983682
332.844959
332.70098
332.554377
332.400543
332.243659
332.077063
331.907072
331.724043
331.53728
331.332833
331.124241
330.891265
330.653562
330.381635
330.104187
329.778188
329.446
329.045317
328.638269
328.136837
327.628398
326.996248
326.350169
325.558189
324.721707
323.752082
322.646913
321.505309
320.033278
318.727096
316.828158
315.142734
312.972733
310.886573
309.945842
309.057888
308.76589
308.98207
307.701945
307.790893
306.789001
306.649167
305.668806
305.422462
304.465527
304.182241
303.290978
302.83482
302.208937
301.587517
301.196306
300.507764
300.272899
299.605811
299.264797
298.668376
298.079941
298.07875
298.591217
298.592257
297.940707
297.932054
298.498161
297.408013
298.212804
335.859974
335.079319
334.515896
334.183516
333.94522
333.750053
333.577705
333.418593
333.267528
333.121274
332.977815
332.835551
332.693565
332.550782
332.406817
332.260689
332.112351
331.96066
331.805847
331.646399
331.48281
331.312998
331.137724
330.954115
330.763168
330.560976
330.348594
330.120825
329.878344
329.61456
329.328788
329.013651
328.665067
328.277465
327.838703
327.351892
326.786247
326.168482
325.428119
324.642854
323.671027
322.673243
321.416774
320.125342
318.56561
316.774319
314.96428
312.426733
310.959469
309.761275
308.766155
309.017194
308.070421
307.790434
307.070604
306.845049
305.936698
305.507677
304.728156
304.093778
303.559647
302.720326
302.355314
301.269332
301.290252
300.049187
300.373617
299.127031
299.736052
298.618151
299.966098
298.513498
299.347861
298.430861
298.20898
298.003267
296.962497
297.725023
297.264159
298.432964
336.116408
335.161496
334.513474
334.131983
333.856036
333.62892
333.428258
333.243068
333.067731
332.898259
332.732728
332.568923
332.406351
332.243256
332.079991
331.914698
331.748441
331.578859
331.407776
331.231943
331.054104
330.869679
330.682588
330.486375
330.286434
330.073814
329.855771
329.620013
329.37598
329.106944
328.82468
328.50688
328.167435
327.77814
327.353578
326.86208
326.313038
325.6811
324.954783
324.142163
323.171774
322.137351
320.837936
319.531897
317.811152
316.137247
313.979449
311.898058
310.268854
308.502322
308.959115
307.658319
307.929224
306.560746
307.041275
305.569039
306.001375
304.419771
304.584513
303.16466
303.180445
301.940333
301.86941
301.107681
300.605022
300.275613
299.754316
299.582765
299.233704
299.012938
298.557037
297.8996
297.90393
298.320961
298.793814
297.86832
298.000028
298.307734
297.141379
298.185632
335.264934
334.016284
333.241672
332.783676
332.446589
332.166821
331.918742
331.69002
331.47365
331.265424
331.062453
330.862892
330.665291
330.46876
330.272473
330.075981
329.878722
329.680443
329.480617
329.279031
329.075053
328.868412
328.658227
328.444083
328.224692
327.999333
327.766089
327.523771
327.269472
327.00125
326.7146
326.40632
326.06942
325.698939
325.284469
324.819459
324.288859
323.686398
322.989269
322.19719
321.26948
320.229774
318.993421
317.653525
316.021438
314.352972
312.28884
310.43827
308.253041
307.838982
306.725833
307.027354
305.760302
305.89145
304.757608
305.027342
303.969637
303.682567
302.95465
302.360844
301.747485
301.153278
300.739807
299.928516
300.02498
299.05522
299.329637
298.543449
298.701987
298.169162
298.76049
297.828602
299.330496
298.003245
297.999223
297.628122
296.897867
297.822556
297.59044
298.613486
335.113118
333.43847
332.475544
331.896018
331.461892
331.09857
330.775899
330.478523
330.19819
329.929194
329.668538
329.413324
329.162656
328.914625
328.669486
328.425523
328.183795
327.942253
327.702671
327.462206
327.223368
326.982022
326.741633
326.496159
326.250438
325.995791
325.739018
325.467848
325.191855
324.893766
324.586982
324.246882
323.89214
323.487066
323.058562
322.554608
322.016412