/*--------------------------------*- C++ -*----------------------------------*\
| =========                 |                                                 |
| \\      /  F ield         | OpenFOAM: The Open Source CFD Toolbox           |
|  \\    /   O peration     | Version:  v2006                                 |
|   \\  /    A nd           | Website:  www.openfoam.com                      |
|    \\/     M anipulation  |                                                 |
\*---------------------------------------------------------------------------*/
FoamFile
{
    version     2.0;
    format      ascii;
    class       volVectorField;
    location    "0.0703000019";
    object      U;
}
// * * * * * * * * * * * * * * * * * * * * * * * * * * * * * * * * * * * * * //

dimensions      [0 1 -1 0 0 0 0];


internalField   nonuniform List<vector> 
14400
(
(108.608845 -0.00179936235 0.205538365)
(135.307057 0.00119605964 -0.137873471)
(147.597131 -0.00233441649 0.266606658)
(157.546718 0.000676540316 -0.0784751158)
(166.249381 -0.00284934785 0.325500036)
(174.161384 0.000156282309 -0.018956189)
(181.521596 -0.0033804323 0.386267902)
(188.483215 -0.000393832303 0.0439944426)
(195.142394 -0.00395269188 0.451758083)
(201.5737 -0.000995468354 0.112860529)
(207.824151 -0.00458546426 0.524206356)
(213.935664 -0.00166538726 0.189579306)
(219.931375 -0.00529390827 0.605347523)
(225.836716 -0.0024156735 0.275528153)
(231.661719 -0.00608802717 0.696328112)
(237.426054 -0.00325175949 0.371338228)
(243.132395 -0.00697024052 0.797446679)
(248.791717 -0.00416906962 0.476516965)
(254.382016 -0.00793126962 0.907697526)
(259.900421 -0.00514776157 0.588906848)
(265.292781 -0.00894508947 1.02417297)
(270.554244 -0.00614917607 0.704017084)
(275.571227 -0.00996420335 1.1412916)
(280.347943 -0.00710704326 0.814302545)
(284.995934 -0.0109050226 1.24940374)
(294.097961 -0.00785753697 0.900299346)
(299.768544 -0.011416172 1.30852292)
(303.31561 -0.00813500841 0.932483309)
(302.43501 -0.0115631467 1.32503892)
(303.191503 -0.0081021373 0.9285761)
(298.772738 -0.0113995579 1.3061515)
(296.339628 -0.00783940313 0.898084525)
(291.978786 -0.0111010571 1.2719655)
(287.131479 -0.00752259582 0.861578397)
(287.018832 -0.0108097055 1.2384808)
(291.012421 -0.00755073241 0.865383637)
(291.886794 -0.0108022489 1.23864147)
(292.302111 -0.00745748597 0.854869764)
(290.736338 -0.0106122709 1.21658865)
(291.943839 -0.00730625803 0.838065903)
(291.271326 -0.0103976202 1.19291311)
(291.515501 -0.0071119935 0.81574555)
(291.244422 -0.0101517127 1.16388815)
(291.629181 -0.00685009856 0.78668041)
(291.4747 -0.009857633 1.13117548)
(291.622834 -0.00647829005 0.741829084)
(291.661825 -0.00955498198 1.09398831)
(291.602571 -0.00594398763 0.679908806)
(291.323124 -0.00920859039 1.05484462)
(291.341316 -0.00531188622 0.608890353)
(291.132723 -0.00855663006 0.980571999)
(291.414222 -0.00456278121 0.522857786)
(291.134271 -0.00779123313 0.892871636)
(291.391694 -0.00356899095 0.40905572)
(291.104431 -0.0068740208 0.787726266)
(291.476096 -0.0025746297 0.295040523)
(290.983847 -0.00608796615 0.697637974)
(291.531989 -0.00153066455 0.175363577)
(291.18881 -0.00566320742 0.648954807)
(291.544422 -0.000918435054 0.105206068)
(291.288346 -0.00540850992 0.619745259)
(291.609885 -0.000701012756 0.0803232936)
(291.314529 -0.00458154063 0.524988155)
(291.572974 -0.000493341942 0.0565316045)
(291.396188 -0.00481449974 0.551686573)
(291.614521 -0.000636118069 0.0728939818)
(291.463536 -0.00487614197 0.558752356)
(291.588191 -0.000252393334 0.0289286482)
(291.463255 -0.0044245137 0.507002221)
(291.54746 -0.00148205626 0.16983417)
(291.35015 -0.00316339995 0.36249454)
(292.252938 -0.00193650779 0.221899239)
(290.870702 -0.00437606189 0.501441953)
(289.812036 -0.00120405938 0.137967784)
(290.595975 0.00795234318 -0.911249198)
(290.299532 0.00696560771 -0.798182099)
(291.709284 -0.00333902496 0.382611669)
(291.948066 -0.00403713456 0.462609291)
(290.742385 0.00287273593 -0.329182431)
(290.350544 0.0030696042 -0.351741471)
(105.690668 -0.00218758437 0.250251185)
(120.862874 0.00216120794 -0.248150849)
(128.275869 -0.00222536489 0.25445991)
(134.645412 0.00211426784 -0.242851436)
(140.511078 -0.00228068467 0.260722102)
(146.1008 0.00204964129 -0.235521579)
(151.521924 -0.00235473415 0.26912943)
(156.843963 0.00196360043 -0.225741984)
(162.098186 -0.00245288605 0.28029897)
(167.320601 0.00184913564 -0.212700007)
(172.527395 -0.00258359836 0.295204643)
(177.749135 0.00169606525 -0.195223867)
(182.995716 -0.00275855956 0.315193097)
(188.295939 0.00149054595 -0.171740466)
(193.655887 -0.00299351445 0.342044805)
(199.103219 0.0012146891 -0.140206161)
(204.640682 -0.00330849683 0.378057319)
(210.298706 0.000845937804 -0.0980224958)
(216.078058 -0.00372848041 0.426135121)
(222.011248 0.000356882075 -0.0419995383)
(228.093261 -0.00428384768 0.48975931)
(234.357455 -0.000284694754 0.0314568845)
(240.786928 -0.00500822991 0.572667834)
(247.414557 -0.00110825468 0.12572329)
(254.202665 -0.00592733064 0.677926601)
(261.18262 -0.00213467979 0.243335294)
(268.160205 -0.00718319855 0.821788858)
(275.046592 -0.00356703521 0.40729849)
(281.526734 -0.00875483831 1.00153756)
(287.608959 -0.00509134678 0.58146264)
(292.67242 -0.0103111252 1.17930977)
(296.999716 -0.00632010398 0.721655981)
(299.358573 -0.011340089 1.29691666)
(303.696007 -0.00674241063 0.771089231)
(295.159532 -0.0113693297 1.30004306)
(293.458277 -0.00639814695 0.730091534)
(292.066076 -0.0111602527 1.27636615)
(294.858833 -0.00640917629 0.732175881)
(293.860238 -0.0110214857 1.25901665)
(294.29884 -0.00646842403 0.737779097)
(293.499302 -0.0107787565 1.23074571)
(295.035812 -0.00652590439 0.744815241)
(293.418234 -0.0104427226 1.1955983)
(294.753712 -0.00657690378 0.751026417)
(293.515936 -0.0101447261 1.16078175)
(294.710902 -0.00668812644 0.767200057)
(293.425365 -0.00966408217 1.10745797)
(294.768693 -0.00705490762 0.807832115)
(293.687937 -0.00895330998 1.02431375)
(295.081839 -0.00731296888 0.836583134)
(293.815313 -0.00819509776 0.938529053)
(295.059243 -0.0075470081 0.86454764)
(293.90366 -0.00740420951 0.848242449)
(294.980747 -0.00774641851 0.887569821)
(293.71454 -0.0065760514 0.753500875)
(294.77115 -0.00763132724 0.874492948)
(293.823901 -0.00591524256 0.677853269)
(294.534238 -0.00732755088 0.839681127)
(293.398199 -0.00492656522 0.564534221)
(294.348591 -0.0071939878 0.824353587)
(293.315795 -0.00384337365 0.440416571)
(294.229591 -0.00626337961 0.717709235)
(293.470162 -0.00307053186 0.351853456)
(294.201996 -0.00522148307 0.598323606)
(293.585844 -0.00121134306 0.138805115)
(294.010772 -0.00423019737 0.484731472)
(293.584401 0.00150063347 -0.171957132)
(293.760203 -0.00207991744 0.238340147)
(293.249236 0.00393167053 -0.450521211)
(293.133877 -0.00138844959 0.159093722)
(292.677491 -0.000335983371 0.03849836)
(291.003458 -0.00520405334 0.596323442)
(292.279663 -0.0174705786 2.00192798)
(294.000594 0.00438243481 -0.502177216)
(295.451286 -0.00715810753 0.820234117)
(292.214015 -0.000896717608 0.102754312)
(291.942289 0.0192492598 -2.20574513)
(292.230261 0.00282353425 -0.323544657)
(294.066497 -0.00133497661 0.152972946)
(292.717732 0.00188748154 -0.216284246)
(97.8542089 -0.00213386758 0.244980849)
(112.64393 0.0021205463 -0.242456355)
(119.845071 -0.00215529685 0.247541382)
(126.020272 0.00209774125 -0.239778845)
(131.680618 -0.00217916185 0.250333192)
(137.033243 0.00207166229 -0.236741043)
(142.17334 -0.00220711003 0.253578864)
(147.165455 0.00203986728 -0.233050512)
(152.043979 -0.00224183411 0.257607966)
(156.846334 0.00199880201 -0.228301285)
(161.591979 -0.00228739997 0.262869582)
(166.310941 0.00194373414 -0.221938784)
(171.016891 -0.00234898816 0.269984341)
(175.737148 0.001867751 -0.213186007)
(180.482649 -0.00243462903 0.279837812)
(185.279938 0.0017610889 -0.20093555)
(190.138884 -0.00255542943 0.293686796)
(195.08619 0.00160986247 -0.183600596)
(200.131517 -0.00272690902 0.313350701)
(205.301785 0.00139423 -0.158899174)
(210.606549 -0.00297267167 0.341467166)
(216.072004 0.00108512047 -0.123557404)
(221.706687 -0.00332564622 0.381823659)
(227.533364 0.000642723086 -0.0729243339)
(233.556459 -0.0038315485 0.439788137)
(239.788493 1.10445474e-05 -0.0005252337)
(246.220924 -0.00455592553 0.522779996)
(252.840636 -0.000883877855 0.101982048)
(259.609546 -0.00557014566 0.63893995)
(266.464945 -0.00209968805 0.241234855)
(273.306994 -0.00690848568 0.792218194)
(279.985383 -0.00362066864 0.41537854)
(286.265283 -0.00848987825 0.973232271)
(291.853686 -0.0052462744 0.601424515)
(295.172882 -0.0102064272 1.16936877)
(297.425561 -0.00614097729 0.702913155)
(293.321969 -0.0106744478 1.22074814)
(296.884502 -0.00598480397 0.684811135)
(292.287523 -0.0105111601 1.20265441)
(297.422834 -0.00597514306 0.683158625)
(292.285656 -0.0102957855 1.1787328)
(296.829002 -0.00594329885 0.680570868)
(292.693641 -0.0100813075 1.15270952)
(296.644153 -0.00597456132 0.682013406)
(292.414425 -0.00973292416 1.11225409)
(296.789183 -0.00590598255 0.674289065)
(292.128769 -0.00930098821 1.06460678)
(296.649865 -0.00559988493 0.640982172)
(292.113471 -0.00879976494 1.00885352)
(296.38142 -0.00523836456 0.600635673)
(292.206047 -0.0085154425 0.975995994)
(296.019028 -0.00514950255 0.590198068)
(292.25814 -0.00803279223 0.920431864)
(295.625064 -0.00508465526 0.582518289)
(292.707841 -0.00707356085 0.810442471)
(295.302768 -0.00513501548 0.588339681)
(292.92238 -0.00573680189 0.657282063)
(295.158926 -0.00556469334 0.63770239)
(293.05995 -0.00439383283 0.503495255)
(294.802116 -0.0051044622 0.584963187)
(293.289412 -0.00292436954 0.335117996)
(294.427073 -0.0042631907 0.488527217)
(293.541873 -0.00118909686 0.136260641)
(294.23331 -0.00456254553 0.522817383)
(293.683931 -0.000426864235 0.0489138384)
(293.864189 -0.00455419885 0.521854207)
(293.887335 0.000830392929 -0.0951411125)
(293.298563 -0.00344326153 0.394554942)
(293.923949 -0.00068448764 0.0784213189)
(292.544872 -0.0036764928 0.421290912)
(293.707061 -0.00177011295 0.202838352)
(291.743377 -0.000447549434 0.0512891672)
(294.710056 0.0178492175 -2.04530794)
(291.494998 0.00602233254 -0.690082746)
(293.248109 0.00449173848 -0.514693406)
(293.028174 -0.00910928671 1.04382438)
(294.812393 0.00177903926 -0.203855761)
(292.566796 0.00666227789 -0.763421478)
(292.880959 0.00628435183 -0.720115927)
(292.983334 0.00574686159 -0.658525035)
(92.057733 -0.00216841135 0.248652555)
(107.078536 0.0021554322 -0.246799408)
(114.357951 -0.00218324158 0.250379944)
(120.58318 0.00214025857 -0.245029921)
(126.264685 -0.00219802727 0.25210441)
(131.605177 0.00212363918 -0.243094621)
(136.699489 -0.00221396526 0.253959619)
(141.612965 0.00210374333 -0.240780405)
(146.38387 -0.00223245012 0.256113293)
(151.050905 0.0020781302 -0.23781688)
(155.636957 -0.0022554241 0.258766304)
(160.170667 0.00204360135 -0.233844829)
(164.667955 -0.00228507616 0.262177073)
(169.151812 0.00199603014 -0.228368634)
(173.635246 -0.00232428855 0.266705006)
(178.137807 0.00192919477 -0.220679834)
(182.672736 -0.00237812334 0.272877699)
(187.257109 0.0018336366 -0.209744382)
(191.907059 -0.00245346561 0.281493844)
(196.636812 0.00169637966 -0.194036599)
(201.467837 -0.00256110467 0.293779993)
(206.409561 0.00149722393 -0.171298807)
(211.491434 -0.00271781359 0.311619356)
(216.71404 0.00120720241 -0.13819402)
(222.118077 -0.00294798409 0.33787571)
(227.687725 0.000784365595 -0.0898768077)
(233.479142 -0.00328917626 0.376791967)
(239.445507 0.00016825436 -0.0194726878)
(245.663323 -0.00379239259 0.434311308)
(252.025577 -0.00071876493 0.0821185396)
(258.633818 -0.00452087246 0.517765021)
(265.258992 -0.00196757225 0.225200933)
(272.028796 -0.00553008371 0.63349588)
(278.445118 -0.00363539117 0.416569844)
(284.634 -0.00679328897 0.778816428)
(289.569437 -0.00553770049 0.635204246)
(293.426041 -0.00787348239 0.903655895)
(296.286538 -0.0065917677 0.756709368)
(293.689727 -0.0081599348 0.936552478)
(295.724406 -0.0065641464 0.752317974)
(293.32279 -0.00784669103 0.899931497)
(296.093601 -0.00662471234 0.75823668)
(293.055366 -0.00741818887 0.850187851)
(296.068516 -0.0067497881 0.774119873)
(293.429236 -0.00686671697 0.786794008)
(295.742429 -0.00712565046 0.817311684)
(294.086734 -0.00627768257 0.719117054)
(295.370895 -0.00775292754 0.889055582)
(294.232521 -0.00547941413 0.628173266)
(294.930824 -0.00836508847 0.958915108)
(293.723718 -0.00432877753 0.496101861)
(294.898005 -0.00868628638 0.995401075)
(293.701294 -0.00300388018 0.344292382)
(295.008348 -0.00902105276 1.03366762)
(293.435779 -0.00172936017 0.198190837)
(294.789263 -0.00941672597 1.07901456)
(293.503842 4.4798754e-05 -0.00515837608)
(294.678955 -0.00937713392 1.0745107)
(293.923885 0.00218501352 -0.25038408)
(294.442345 -0.00924853498 1.05981409)
(294.053382 0.00456038958 -0.522546234)
(294.04054 -0.0101320361 1.1610255)
(294.003531 0.00659760515 -0.756008869)
(293.536453 -0.0113390914 1.29933397)
(294.206616 0.00687646509 -0.787963756)
(293.164518 -0.012496772 1.43199454)
(294.199823 0.00700484514 -0.802686676)
(292.618236 -0.0115601398 1.32464946)
(294.172536 0.00401312833 -0.459859804)
(291.603654 -0.00915798952 1.04939487)
(293.668777 0.00176244697 -0.201957623)
(291.759124 -0.00155262 0.177910547)
(293.282157 -0.0109075287 1.24987153)
(291.216276 -0.00437810575 0.501676982)
(294.45142 0.000983312803 -0.112676805)
(292.384813 0.00577482684 -0.661727967)
(292.51243 0.0190589255 -2.1839349)
(292.853818 0.00489085786 -0.560437301)
(294.050926 0.000862717942 -0.0988590696)
(293.794372 0.00431421736 -0.494361068)
(87.7881883 -0.000578985081 0.0661028231)
(103.275633 0.000558744961 -0.0643116329)
(110.752454 -0.000593667398 0.0677205102)
(117.122362 0.000544257959 -0.0626910427)
(122.90805 -0.000607633623 0.0692855672)
(128.309895 0.000528963195 -0.060971976)
(133.430935 -0.000622294596 0.0709325143)
(138.33744 0.000511056061 -0.0589535103)
(143.078496 -0.000638996762 0.0728112025)
(147.691739 0.000488411973 -0.0563974678)
(152.209646 -0.000659180827 0.0750825197)
(156.655999 0.000458431248 -0.0530040766)
(161.055294 -0.000684434319 0.0779357458)
(165.422193 0.00041767923 -0.0483712983)
(169.778344 -0.000716833369 0.0816163512)
(174.131795 0.000361302072 -0.0419381493)
(178.505614 -0.000759406403 0.0864662148)
(182.902122 0.000282118993 -0.0329029976)
(187.34971 -0.000816725253 0.0929853699)
(191.844167 0.000169917145 -0.0201036586)
(196.423231 -0.000895331402 0.101929131)
(201.073322 9.95385744e-06 -0.00184017843)
(205.846342 -0.00100528413 0.114456933)
(210.713864 -0.000219595263 0.0243823804)
(215.748578 -0.00116225486 0.132355596)
(220.897772 -0.000550604579 0.062218833)
(226.26475 -0.00139006835 0.158357029)
(231.756148 -0.00102936105 0.11697611)
(237.520917 -0.00172397688 0.196540173)
(243.395164 -0.00172091473 0.196178173)
(249.597097 -0.00221377802 0.252660471)
(255.833988 -0.00271290732 0.309879486)
(262.433107 -0.00292064487 0.333736445)
(268.849197 -0.00410442272 0.46946099)
(275.600898 -0.00388492395 0.444405127)
(281.604194 -0.00593782946 0.680025297)
(287.848108 -0.00498515098 0.571439086)
(291.990311 -0.00795987053 0.912960633)
(296.241193 -0.00581001124 0.667955072)
(296.38633 -0.0090394276 1.03682032)
(295.562546 -0.00570817365 0.65609727)
(296.07009 -0.00907471859 1.03978022)
(295.645065 -0.00548142648 0.627753031)
(296.06255 -0.0091520804 1.04596283)
(294.579458 -0.00511254915 0.584029813)
(295.977043 -0.00919917177 1.05290523)
(293.856158 -0.00438835194 0.504939541)
(296.307389 -0.00930198238 1.06858438)
(294.33916 -0.00353428321 0.408475914)
(296.781588 -0.00988560159 1.13439122)
(295.325376 -0.00252384799 0.28988168)
(296.519188 -0.010106111 1.15824046)
(295.292075 -0.00128497656 0.147189915)
(295.813837 -0.0103830533 1.18963001)
(295.384985 0.000140121041 -0.0161266562)
(295.540105 -0.01053062 1.20665148)
(295.657113 0.00142719464 -0.163547253)
(294.697558 -0.0109057737 1.24975723)
(295.363183 0.00222926888 -0.255418691)
(294.391225 -0.0117013307 1.34085729)
(295.119055 0.00311678803 -0.357137656)
(294.010987 -0.0120422245 1.37991138)
(295.012198 0.00397700748 -0.455713921)
(293.539349 -0.0121423974 1.39138167)
(294.864968 0.00397565658 -0.45556506)
(292.952819 -0.012000814 1.37515279)
(294.745989 0.00342852227 -0.392855454)
(292.407203 -0.00976295798 1.11872398)
(294.684038 0.0028426766 -0.325744236)
(292.272785 -0.00625857775 0.71717124)
(294.615237 0.00167326594 -0.191731562)
(291.489909 0.00105533545 -0.120922851)
(293.819515 0.0140683222 -1.61205986)
(293.202314 0.0103479334 -1.18574879)
(293.731914 0.00420589697 -0.481943966)
(294.774505 -0.0108421849 1.2423935)
(294.136392 0.00120492054 -0.138070723)
(292.306079 0.0104847535 -1.20143479)
(292.475904 0.0108137965 -1.23913895)
(292.947968 0.00707528021 -0.810747228)
(84.372956 0.000774366767 -0.0883799729)
(100.353579 -0.000780558265 0.089864347)
(108.048931 0.000763994381 -0.0870911785)
(114.578134 -0.000791151687 0.091138531)
(120.475954 0.00075405081 -0.0858986126)
(125.944407 -0.00080233079 0.0924699136)
(131.096395 0.000743845171 -0.0846796348)
(136.002981 -0.000815657964 0.0940459224)
(140.723296 0.000732322904 -0.0833104904)
(145.296988 -0.00083295187 0.0960783261)
(149.763621 0.000718457926 -0.0816718301)
(154.145901 -0.000856559667 0.0988285706)
(158.473162 0.000701017019 -0.0796326818)
(162.757144 -0.000889537166 0.10264488)
(167.022873 0.000678604638 -0.0770305232)
(171.274569 -0.000936138595 0.108009785)
(175.537507 0.000649195368 -0.0736454519)
(179.810037 -0.00100231938 0.115605432)
(184.121533 0.000610209303 -0.069161892)
(188.46452 -0.00109636238 0.126407552)
(192.876151 0.000557642794 -0.0631081934)
(197.341435 -0.00123063269 0.141822103)
(201.909355 0.000485066394 -0.0547616634)
(206.553603 -0.00142291775 0.163882307)
(211.34019 0.000382576325 -0.0430031934)
(216.224781 -0.00169905297 0.19552867)
(221.297879 0.000235052655 -0.0261019118)
(226.485849 -0.00209613326 0.24099716)
(231.914927 1.87449696e-05 -0.00141539381)
(237.462593 -0.00266805122 0.30632599)
(243.308099 -0.000302154184 0.0349608149)
(249.243737 -0.00348956172 0.399896725)
(255.529513 -0.000775775248 0.0884570053)
(261.799104 -0.0046531771 0.532540382)
(268.444885 -0.00144214639 0.164521372)
(274.77575 -0.00625016833 0.71540399)
(281.447903 -0.00230401779 0.263528245)
(286.985728 -0.008298985 0.950841446)
(292.851351 -0.00313785975 0.360575921)
(294.723553 -0.0104930388 1.20326195)
(299.174873 -0.00323119206 0.371174978)
(295.247775 -0.011192979 1.28372808)
(298.69533 -0.00290455774 0.332591874)
(295.430686 -0.0114785797 1.31783335)
(298.956556 -0.00251977051 0.29147243)
(295.702752 -0.0116622226 1.33811229)
(299.213648 -0.00233101221 0.265000291)
(295.058071 -0.0117530801 1.34429411)
(298.177134 -0.00222403308 0.251817325)
(294.37344 -0.0116102232 1.32934129)
(298.360733 -0.00224968175 0.25768757)
(294.294724 -0.0123329816 1.41345131)
(298.016657 -0.00228187288 0.261517229)
(294.703074 -0.0131868455 1.51101698)
(297.657872 -0.00207417985 0.237686922)
(294.765202 -0.0137786603 1.57884829)
(297.197964 -0.00133625054 0.153142772)
(294.887178 -0.0150868786 1.728735)
(297.254037 0.000851576951 -0.0975801029)
(294.830836 -0.0155301759 1.77953775)
(297.037282 0.00323107876 -0.37024999)
(294.814744 -0.015749431 1.80470579)
(296.83029 0.00542830374 -0.622019417)
(294.685579 -0.0165116129 1.89204287)
(296.422933 0.00669031613 -0.766636625)
(294.627265 -0.0156034008 1.78797274)
(296.003157 0.00507589192 -0.581627352)
(294.590625 -0.0126989997 1.45516821)
(295.586939 0.00284926914 -0.32649521)
(294.743277 -0.00912362143 1.04547213)
(295.49237 -0.00043656195 0.0500310508)
(296.49363 -0.000403210467 0.0462021652)
(295.111925 -0.00305889715 0.350515138)
(293.5594 -0.00279561206 0.320345328)
(293.463361 0.0083287377 -0.954379789)
(294.989392 0.0110937489 -1.2712192)
(295.29867 0.0145136587 -1.66310273)
(294.969152 -0.000394792417 0.0452377426)
(296.000495 0.0058539008 -0.670792088)
(294.724024 0.0087347379 -1.00090255)
(80.1400962 0.00191767639 -0.219941672)
(96.5654613 -0.00193474745 0.221478241)
(104.455281 0.00190581336 -0.21862696)
(111.113386 -0.00194592735 0.222723078)
(117.087463 0.00189477154 -0.217391963)
(122.585652 -0.00195682859 0.223948592)
(127.732338 0.00188306731 -0.216066559)
(132.606791 -0.00196892321 0.225316696)
(137.276705 0.00186903349 -0.21447944)
(141.786289 -0.00198358683 0.226981491)
(146.17895 0.00185121541 -0.212449467)
(150.4799 -0.00200237081 0.229111979)
(154.718767 0.00182741583 -0.209756351)
(158.909874 -0.00202728045 0.231917713)
(163.075269 0.00179507049 -0.206109515)
(167.22355 -0.00206074684 0.235678044)
(171.373033 0.00175062167 -0.201109546)
(175.53006 -0.00210625649 0.240779305)
(179.711541 0.00168915146 -0.194193499)
(183.924032 -0.00216849695 0.247768154)
(188.184233 0.00160380627 -0.184557444)
(192.500746 -0.00225403504 0.257431886)
(196.890249 0.00148470665 -0.171038)
(201.364861 -0.00237290648 0.270916648)
(205.940352 0.00131682515 -0.151942774)
(210.633785 -0.0025398792 0.28989717)
(215.457847 0.00107871044 -0.124808568)
(220.436322 -0.00277624233 0.316816948)
(225.574656 0.000739172065 -0.086069469)
(230.905752 -0.00311272114 0.35521129)
(236.419754 0.000254657029 -0.0306396737)
(242.161459 -0.0035920428 0.410093614)
(248.089411 -0.000434576673 0.0484765135)
(254.262086 -0.00427153556 0.488222228)
(260.572475 -0.00140222613 0.159996408)
(267.086964 -0.00521645222 0.597486903)
(273.562506 -0.00272232027 0.312190841)
(280.032392 -0.00647750267 0.743040211)
(286.001442 -0.00436019868 0.500745569)
(291.189796 -0.0079629525 0.913720031)
(296.146091 -0.0057067038 0.654451962)
(293.531341 -0.00931932998 1.06796459)
(298.000951 -0.00578806359 0.661469598)
(293.408174 -0.00931513636 1.06521735)
(297.597189 -0.00601477069 0.686873865)
(292.910113 -0.00925900477 1.0582411)
(297.31772 -0.00635086907 0.729427759)
(293.305071 -0.00924184725 1.0622918)
(298.128491 -0.00644013577 0.741140451)
(293.820004 -0.00945703079 1.08476597)
(297.262933 -0.00668998408 0.766920694)
(293.989157 -0.00968301832 1.10968271)
(296.97561 -0.00670143016 0.76793832)
(293.760757 -0.00944253941 1.08196618)
(297.105776 -0.00688744179 0.789178941)
(293.897122 -0.0092978897 1.06540639)
(296.731402 -0.00746755442 0.855652767)
(294.292173 -0.00920496268 1.05487778)
(296.269157 -0.00852278562 0.976639435)
(294.109691 -0.00958081805 1.09790079)
(295.697437 -0.0092823896 1.06366895)
(293.930358 -0.00948191514 1.08653318)
(294.958426 -0.00925216241 1.0602002)
(293.885511 -0.00780537604 0.894410507)
(294.352237 -0.00819024874 0.938507603)
(293.925006 -0.00584991857 0.670331065)
(293.779827 -0.00497139426 0.569682649)
(294.083623 -0.00060294965 0.0690914298)
(293.580357 -0.0014825082 0.16986387)
(294.518022 0.00255445326 -0.292709914)
(293.689194 0.004173485 -0.478221177)
(294.329599 -0.00227065965 0.260194086)
(292.870233 0.0029736404 -0.340744512)
(295.979639 -0.0030705457 0.351849757)
(295.904248 0.010215336 -1.17056544)
(295.70868 -0.0130787386 1.49867634)
(295.612527 0.00302830434 -0.347004211)
(293.101908 0.0156502991 -1.7933442)
(294.776324 0.0149889086 -1.71755922)
(294.83403 0.00893860677 -1.02426365)
(77.4770775 0.000452940241 -0.0530822653)
(94.4788842 -0.000486685456 0.0543307905)
(102.628105 0.000441013158 -0.0520953915)
(109.464678 -0.000496384169 0.0552178192)
(115.549873 0.000431827484 -0.0512348565)
(121.109255 -0.000504936217 0.0560260923)
(126.276963 0.000422538302 -0.0503269503)
(131.148559 -0.000513763105 0.0568926359)
(135.794523 0.000411644485 -0.0492142132)
(140.27066 -0.000523869587 0.0579240288)
(144.616966 0.000397695622 -0.0477349405)
(148.868709 -0.000536195245 0.0592218641)
(153.047815 0.000378858567 -0.0456886225)
(157.179522 -0.000551837907 0.0609034838)
(161.274238 0.000352733481 -0.042803266)
(165.354055 -0.000572076641 0.0631197429)
(169.421039 0.000316066662 -0.0386965979)
(173.499314 -0.000598617847 0.0660763987)
(177.583497 0.000264146505 -0.0328225003)
(181.704412 -0.000634038303 0.0700666084)
(185.848197 0.000190079407 -0.0243927678)
(190.057348 -0.000682011691 0.0755219467)
(194.306356 8.39823634e-05 -0.0122618231)
(198.65545 -0.000748118317 0.0830928498)
(203.061461 -6.85288552e-05 0.00524082102)
(207.610604 -0.000840834311 0.093770805)
(212.231927 -0.000288724654 0.0305506415)
(217.049864 -0.000973344853 0.109067969)
(221.949136 -0.00060714553 0.0672036234)
(227.111482 -0.00116507792 0.131270481)
(232.349693 -0.00106766718 0.120286569)
(237.933563 -0.00144506652 0.163762393)
(243.555528 -0.00173225906 0.196978375)
(249.624759 -0.00185408782 0.211336736)
(255.622517 -0.00268420439 0.306974462)
(262.188964 -0.00244407881 0.280079115)
(268.408019 -0.00402468461 0.461922607)
(275.335515 -0.00326239673 0.375363042)
(281.221104 -0.0058329411 0.670730755)
(288.006507 -0.00427880912 0.493349125)
(291.843524 -0.00798669294 0.918597049)
(295.596854 -0.00543013561 0.625062897)
(297.299878 -0.00876561899 1.00702836)
(295.380565 -0.00576527102 0.662500297)
(297.636014 -0.00877212429 1.00799423)
(295.355117 -0.00585348405 0.671097495)
(297.52124 -0.00884141781 1.00773459)
(295.501805 -0.00588333873 0.670210983)
(296.108686 -0.00912161246 1.04365562)
(294.626593 -0.0057077785 0.654232359)
(296.288337 -0.00894075573 1.02482262)
(294.805976 -0.00550334448 0.630922214)
(296.608459 -0.00918995898 1.0532139)
(294.955541 -0.00549925266 0.630201709)
(296.160656 -0.00935736996 1.07226216)
(294.712398 -0.00600010298 0.687471329)
(295.435046 -0.00992804691 1.13764197)
(294.44507 -0.0056846819 0.651331725)
(295.566078 -0.0106548391 1.22092703)
(294.770903 -0.00603149663 0.691135754)
(295.512998 -0.0107836259 1.23569392)
(294.84619 -0.00533619297 0.611468647)
(295.337549 -0.0105860786 1.21304253)
(294.796297 -0.00485819412 0.556692039)
(294.954084 -0.00959629922 1.09962429)
(294.829944 -0.00447833828 0.513165)
(294.678911 -0.00776463372 0.889753948)
(294.834384 -0.00500050539 0.573001246)
(294.480483 -0.00432512746 0.495595164)
(295.18027 -0.0026068728 0.29872849)
(294.59429 -0.0023593627 0.270364557)
(295.621322 -0.0028755091 0.329506581)
(295.711577 0.00824046449 -0.944259652)
(293.408014 0.00570175751 -0.653360203)
(293.142033 0.0153933166 -1.76390427)
(293.80868 0.00655730424 -0.751393889)
(297.033525 0.00648081606 -0.742629219)
(295.940197 -0.00451939971 0.517870637)
(295.960707 0.00890778385 -1.0207325)
(295.642408 0.0117081837 -1.34162549)
(73.8798585 -0.00108289576 0.123185594)
(91.4154868 0.00105260213 -0.121736294)
(99.7982184 -0.00109580513 0.124340336)
(106.773592 0.00104184279 -0.120700543)
(112.925011 -0.00110627997 0.125368884)
(118.500653 0.00103214177 -0.119744113)
(123.648738 -0.00111727495 0.126485715)
(128.480079 0.00102197606 -0.118714394)
(133.069892 -0.00113051059 0.127872583)
(137.482126 0.00101030497 -0.117503335)
(141.756473 -0.00114771237 0.129715833)
(145.933306 0.000996132021 -0.116012866)
(150.032246 -0.00117100707 0.13224691)
(154.082245 0.000978493331 -0.114134165)
(158.090728 -0.00120311191 0.13577647)
(162.082551 0.000956161569 -0.111733216)
(166.056804 -0.00124786887 0.14073323)
(170.039292 0.000927475461 -0.108634559)
(174.02227 -0.00131056592 0.147715428)
(178.036688 0.000890401854 -0.104598246)
(182.06774 -0.00139847369 0.15756423)
(186.155691 0.000841832962 -0.0992821106)
(190.276738 -0.001522268 0.171468277)
(194.485246 0.000776937028 -0.0921768788)
(198.744358 -0.00169717272 0.191115501)
(203.128669 0.000688618012 -0.0825207544)
(207.581225 -0.00194421073 0.218906133)
(212.205561 0.000566767288 -0.0691384388)
(216.913204 -0.00229295227 0.258253286)
(221.849732 0.00039622599 -0.0502252118)
(226.876366 -0.00278528655 0.314002901)
(232.201397 0.000153527277 -0.0230674251)
(237.603732 -0.00348034287 0.392981277)
(243.387644 -0.000196536863 0.0163850638)
(249.190483 -0.00445995225 0.504601966)
(255.46988 -0.000699700644 0.0735848778)
(261.599874 -0.0058281842 0.661264856)
(268.307076 -0.00139941534 0.154171932)
(274.405149 -0.00770251887 0.876960183)
(281.210058 -0.00228270819 0.257061537)
(285.97849 -0.0101498613 1.15951077)
(292.279449 -0.00301372536 0.344134471)
(292.526073 -0.0125605958 1.43779567)
(294.779304 -0.00316946006 0.359818894)
(293.181647 -0.0133250249 1.52640845)
(294.333569 -0.00317598687 0.364012829)
(293.32984 -0.014022657 1.60908972)
(293.967449 -0.00331930777 0.384736244)
(294.652429 -0.0148270943 1.7027312)
(295.377648 -0.00347985347 0.400734394)
(294.031507 -0.016130107 1.849194)
(294.793547 -0.00356305185 0.408414756)
(293.612627 -0.0172510636 1.97682003)
(294.658653 -0.00389032402 0.445740983)
(293.359937 -0.0185489676 2.12547586)
(294.337468 -0.00404564885 0.463727046)
(293.977983 -0.0192635832 2.20746505)
(294.38958 -0.00444257394 0.509099844)
(293.384789 -0.0205000497 2.3490698)
(293.703803 -0.00314127463 0.359973804)
(293.23563 -0.0204395204 2.34215694)
(293.208445 -0.00206322639 0.236435146)
(293.478687 -0.0187032867 2.14318945)
(292.697185 -0.000447949331 0.0513336589)
(293.853114 -0.0175809143 2.01457332)
(291.975938 0.00140864671 -0.161412956)
(294.173092 -0.0125290387 1.4356971)
(291.542518 0.00596196241 -0.683172633)
(294.640972 -0.00622252003 0.713021043)
(291.272527 0.00815623748 -0.93460843)
(294.49398 0.000523659415 -0.0599908725)
(291.986031 0.00113055548 -0.12954493)
(294.230348 -0.00444213719 0.509011155)
(294.481762 -0.0146754375 1.68163123)
(295.345051 0.00851844387 -0.976124028)
(294.946444 -0.000570250729 0.0653468609)
(293.382135 0.00971250302 -1.11293972)
(293.486116 0.0138590872 -1.58809507)
(294.033044 0.0112235355 -1.28609058)
(294.438581 0.00681503999 -0.780927008)
(71.606729 -0.00182123788 0.208992955)
(89.8111301 0.00181712156 -0.207859771)
(98.4919914 -0.00182731442 0.209789125)
(105.648559 0.00181169022 -0.207171363)
(111.89882 -0.0018320267 0.210381695)
(117.518395 0.00180658073 -0.206539379)
(122.675792 -0.00183662187 0.210955477)
(127.494716 0.00180048813 -0.205788145)
(132.059241 -0.0018419511 0.211620724)
(136.436835 0.00179216609 -0.204778179)
(140.672263 -0.00184880162 0.212460677)
(144.804595 0.00178014145 -0.203353421)
(148.858742 -0.00185811478 0.213563102)
(152.858573 0.00176255761 -0.201308226)